RBC_V2.atomic.data

21702 atoms
3202 bonds

7 atom types
3 bond types

-35 35 xlo xhi
-35 35 ylo yhi
-35 35 zlo zhi


Atoms

1 2    0.002    0.009   25.009 
2 2    0.004    0.002  -24.990 
3 1    0.977    0.007   24.982 
4 1    0.491    0.845   24.982 
5 1   -0.475    0.846   24.985 
6 1   -0.965    0.004   24.983 
7 1   -0.482   -0.836   24.983 
8 1    0.485   -0.831   24.987 
9 1    1.942    0.002   24.930 
10 1    1.724    0.903   24.930 
11 1    1.102    1.597   24.926 
12 1    0.237    1.927   24.929 
13 1   -0.678    1.816   24.932 
14 1   -1.442    1.290   24.927 
15 1   -1.872    0.470   24.933 
16 1   -1.871   -0.457   24.925 
17 1   -1.442   -1.276   24.934 
18 1   -0.685   -1.805   24.927 
19 1    0.236   -1.918   24.929 
20 1    1.109   -1.593   24.933 
21 1    1.723   -0.897   24.934 
22 1    2.902    0.003   24.831 
23 1    2.749    0.946   24.834 
24 1    2.292    1.792   24.839 
25 1    1.589    2.433   24.839 
26 1    0.720    2.814   24.831 
27 1   -0.239    2.893   24.836 
28 1   -1.163    2.663   24.834 
29 1   -1.965    2.144   24.840 
30 1   -2.547    1.391   24.833 
31 1   -2.854    0.482   24.841 
32 1   -2.857   -0.477   24.840 
33 1   -2.547   -1.372   24.833 
34 1   -1.965   -2.126   24.831 
35 1   -1.161   -2.650   24.840 
36 1   -0.233   -2.883   24.835 
37 1    0.719   -2.806   24.834 
38 1    1.588   -2.428   24.838 
39 1    2.293   -1.778   24.835 
40 1    2.749   -0.936   24.840 
41 1    3.870    0.002   24.706 
42 1    3.749    0.967   24.708 
43 1    3.387    1.868   24.706 
44 1    2.825    2.653   24.703 
45 1    2.073    3.270   24.706 
46 1    1.198    3.675   24.706 
47 1    0.245    3.859   24.700 
48 1   -0.715    3.796   24.709 
49 1   -1.640    3.500   24.701 
50 1   -2.460    2.981   24.703 
51 1   -3.116    2.273   24.704 
52 1   -3.589    1.431   24.707 
53 1   -3.825    0.491   24.708 
54 1   -3.826   -0.475   24.705 
55 1   -3.584   -1.417   24.700 
56 1   -3.119   -2.262   24.706 
57 1   -2.460   -2.974   24.707 
58 1   -1.638   -3.494   24.706 
59 1   -0.720   -3.785   24.706 
60 1    0.244   -3.850   24.708 
61 1    1.194   -3.665   24.706 
62 1    2.076   -3.254   24.701 
63 1    2.822   -2.636   24.703 
64 1    3.392   -1.852   24.710 
65 1    3.744   -0.951   24.706 
66 2    4.826    0.006   24.540 
67 1    4.725    0.975   24.531 
68 1    4.430    1.904   24.537 
69 1    3.954    2.756   24.532 
70 1    3.327    3.495   24.533 
71 2    2.550    4.089   24.540 
72 1    1.675    4.521   24.539 
73 1    0.733    4.771   24.533 
74 1   -0.240    4.816   24.538 
75 1   -1.207    4.666   24.537 
76 2   -2.114    4.335   24.539 
77 1   -2.943    3.817   24.534 
78 1   -3.654    3.138   24.533 
79 1   -4.206    2.342   24.541 
80 1   -4.596    1.446   24.540 
81 2   -4.790    0.492   24.534 
82 1   -4.788   -0.480   24.540 
83 1   -4.587   -1.435   24.532 
84 1   -4.207   -2.331   24.536 
85 1   -3.646   -3.128   24.532 
86 1   -2.945   -3.804   24.534 
87 2   -2.117   -4.323   24.534 
88 1   -1.200   -4.664   24.534 
89 1   -0.236   -4.808   24.535 
90 1    0.734   -4.762   24.540 
91 1    1.678   -4.510   24.533 
92 2    2.557   -4.080   24.541 
93 1    3.324   -3.486   24.537 
94 1    3.960   -2.746   24.537 
95 1    4.428   -1.896   24.531 
96 1    4.721   -0.966   24.535 
97 1    5.768    0.001   24.326 
98 1    5.688    0.977   24.327 
99 1    5.441    1.925   24.335 
100 1    5.042    2.812   24.333 
101 1    4.495    3.630   24.336 
102 1    3.813    4.328   24.329 
103 1    3.028    4.919   24.335 
104 1    2.156    5.359   24.334 
105 1    1.224    5.644   24.327 
106 1    0.248    5.761   24.333 
107 1   -0.727    5.726   24.333 
108 1   -1.681    5.521   24.328 
109 1   -2.586    5.151   24.327 
110 1   -3.424    4.641   24.327 
111 1   -4.154    3.999   24.327 
112 1   -4.776    3.231   24.334 
113 1   -5.251    2.384   24.329 
114 1   -5.577    1.459   24.329 
115 1   -5.740    0.492   24.334 
116 1   -5.744   -0.487   24.326 
117 1   -5.571   -1.444   24.336 
118 1   -5.245   -2.365   24.326 
119 1   -4.769   -3.223   24.334 
120 1   -4.155   -3.981   24.334 
121 1   -3.419   -4.632   24.330 
122 1   -2.589   -5.148   24.328 
123 1   -1.682   -5.508   24.333 
124 1   -0.723   -5.713   24.332 
125 1    0.245   -5.757   24.334 
126 1    1.221   -5.634   24.330 
127 1    2.154   -5.345   24.327 
128 1    3.030   -4.907   24.326 
129 1    3.818   -4.320   24.335 
130 1    4.495   -3.621   24.328 
131 1    5.041   -2.806   24.332 
132 1    5.444   -1.912   24.336 
133 1    5.685   -0.968   24.331 
134 1    6.708    0.003   24.085 
135 1    6.635    0.985   24.091 
136 1    6.426    1.939   24.092 
137 1    6.076    2.849   24.092 
138 1    5.600    3.700   24.091 
139 1    4.993    4.483   24.085 
140 1    4.290    5.159   24.084 
141 1    3.495    5.723   24.089 
142 1    2.623    6.172   24.084 
143 1    1.704    6.489   24.085 
144 1    0.738    6.668   24.090 
145 1   -0.244    6.706   24.088 
146 1   -1.212    6.596   24.089 
147 1   -2.163    6.347   24.091 
148 1   -3.065    5.968   24.092 
149 1   -3.892    5.457   24.093 
150 1   -4.649    4.832   24.093 
151 1   -5.302    4.104   24.085 
152 1   -5.838    3.287   24.089 
153 1   -6.259    2.404   24.094 
154 1   -6.541    1.462   24.089 
155 1   -6.677    0.495   24.086 
156 1   -6.686   -0.482   24.087 
157 1   -6.544   -1.455   24.085 
158 1   -6.254   -2.388   24.092 
159 1   -5.846   -3.272   24.091 
160 1   -5.303   -4.097   24.088 
161 1   -4.651   -4.820   24.092 
162 1   -3.891   -5.443   24.093 
163 1   -3.061   -5.961   24.093 
164 1   -2.165   -6.337   24.085 
165 1   -1.209   -6.592   24.085 
166 1   -0.244   -6.691   24.085 
167 1    0.739   -6.663   24.084 
168 1    1.705   -6.479   24.087 
169 1    2.628   -6.168   24.092 
170 1    3.500   -5.714   24.092 
171 1    4.290   -5.153   24.091 
172 1    4.995   -4.470   24.086 
173 1    5.593   -3.697   24.094 
174 1    6.078   -2.845   24.088 
175 1    6.427   -1.922   24.092 
176 1    6.635   -0.968   24.091 
177 1    7.634    0.005   23.813 
178 1    7.576    0.979   23.813 
179 1    7.388    1.946   23.808 
180 1    7.082    2.871   23.807 
181 1    6.660    3.753   23.810 
182 1    6.121    4.571   23.807 
183 1    5.489    5.312   23.809 
184 1    4.760    5.974   23.813 
185 1    3.958    6.533   23.813 
186 1    3.091    6.981   23.808 
187 1    2.181    7.322   23.814 
188 1    1.221    7.536   23.809 
189 1    0.250    7.634   23.808 
190 1   -0.731    7.600   23.816 
191 1   -1.692    7.442   23.816 
192 1   -2.631    7.164   23.806 
193 1   -3.530    6.776   23.815 
194 1   -4.362    6.264   23.808 
195 1   -5.123    5.656   23.807 
196 1   -5.809    4.957   23.806 
197 1   -6.388    4.165   23.812 
198 1   -6.872    3.313   23.814 
199 1   -7.242    2.406   23.813 
200 1   -7.486    1.465   23.807 
201 1   -7.615    0.490   23.814 
202 1   -7.617   -0.482   23.809 
203 1   -7.491   -1.458   23.806 
204 1   -7.239   -2.398   23.808 
205 1   -6.869   -3.311   23.814 
206 1   -6.394   -4.160   23.811 
207 1   -5.811   -4.944   23.811 
208 1   -5.125   -5.646   23.815 
209 1   -4.367   -6.257   23.814 
210 1   -3.529   -6.761   23.807 
211 1   -2.631   -7.157   23.812 
212 1   -1.697   -7.435   23.813 
213 1   -0.728   -7.588   23.813 
214 1    0.248   -7.627   23.806 
215 1    1.220   -7.529   23.807 
216 1    2.179   -7.308   23.815 
217 1    3.090   -6.978   23.811 
218 1    3.964   -6.526   23.816 
219 1    4.767   -5.958   23.809 
220 1    5.493   -5.305   23.813 
221 1    6.122   -4.559   23.808 
222 1    6.655   -3.737   23.809 
223 1    7.079   -2.857   23.808 
224 1    7.390   -1.936   23.809 
225 1    7.577   -0.968   23.808 
226 1    8.554    0.004   23.498 
227 1    8.498    0.984   23.493 
228 1    8.333    1.937   23.498 
229 1    8.056    2.880   23.495 
230 1    7.675    3.779   23.498 
231 2    7.193    4.630   23.501 
232 1    6.629    5.418   23.493 
233 1    5.960    6.133   23.498 
234 1    5.225    6.775   23.496 
235 1    4.418    7.331   23.498 
236 1    3.558    7.783   23.500 
237 1    2.645    8.138   23.493 
238 1    1.708    8.387   23.498 
239 1    0.736    8.520   23.500 
240 2   -0.237    8.556   23.497 
241 1   -1.211    8.470   23.497 
242 1   -2.171    8.271   23.493 
243 1   -3.094    7.971   23.494 
244 1   -3.983    7.571   23.494 
245 1   -4.818    7.059   23.496 
246 1   -5.598    6.467   23.495 
247 1   -6.295    5.792   23.499 
248 1   -6.914    5.027   23.501 
249 2   -7.440    4.212   23.501 
250 1   -7.871    3.330   23.494 
251 1   -8.195    2.414   23.501 
252 1   -8.422    1.468   23.499 
253 1   -8.527    0.498   23.497 
254 1   -8.533   -0.483   23.494 
255 1   -8.421   -1.455   23.501 
256 1   -8.202   -2.408   23.493 
257 1   -7.870   -3.324   23.500 
258 2   -7.444   -4.201   23.495 
259 1   -6.915   -5.018   23.497 
260 1   -6.293   -5.780   23.494 
261 1   -5.597   -6.461   23.496 
262 1   -4.822   -7.052   23.502 
263 1   -3.983   -7.559   23.492 
264 1   -3.100   -7.968   23.492 
265 1   -2.167   -8.265   23.493 
266 1   -1.216   -8.457   23.494 
267 2   -0.238   -8.538   23.495 
268 1    0.741   -8.514   23.495 
269 1    1.700   -8.375   23.501 
270 1    2.652   -8.126   23.500 
271 1    3.553   -7.774   23.496 
272 1    4.425   -7.318   23.495 
273 1    5.226   -6.767   23.493 
274 1    5.965   -6.124   23.498 
275 1    6.626   -5.409   23.501 
276 2    7.197   -4.616   23.499 
277 1    7.682   -3.771   23.502 
278 1    8.057   -2.867   23.497 
279 1    8.332   -1.930   23.494 
280 1    8.500   -0.969   23.496 
281 2    9.464    0.004   23.143 
282 1    9.408    0.975   23.145 
283 1    9.259    1.934   23.145 
284 1    9.012    2.881   23.149 
285 1    8.669    3.793   23.151 
286 1    8.229    4.663   23.150 
287 1    7.715    5.485   23.147 
288 1    7.102    6.249   23.151 
289 1    6.428    6.947   23.153 
290 1    5.680    7.570   23.145 
291 2    4.873    8.110   23.145 
292 1    4.013    8.568   23.147 
293 1    3.116    8.939   23.150 
294 1    2.178    9.210   23.153 
295 1    1.222    9.383   23.143 
296 1    0.253    9.453   23.144 
297 1   -0.728    9.434   23.149 
298 1   -1.690    9.309   23.146 
299 1   -2.634    9.081   23.147 
300 1   -3.559    8.766   23.143 
301 2   -4.441    8.354   23.152 
302 1   -5.277    7.849   23.149 
303 1   -6.047    7.270   23.151 
304 1   -6.768    6.599   23.152 
305 1   -7.405    5.869   23.149 
306 1   -7.976    5.083   23.148 
307 1   -8.452    4.234   23.148 
308 1   -8.844    3.337   23.149 
309 1   -9.138    2.409   23.151 
310 1   -9.342    1.465   23.145 
311 2   -9.437    0.494   23.145 
312 1   -9.437   -0.478   23.150 
313 1   -9.334   -1.455   23.144 
314 1   -9.135   -2.403   23.151 
315 1   -8.845   -3.326   23.147 
316 1   -8.452   -4.222   23.153 
317 1   -7.977   -5.068   23.153 
318 1   -7.410   -5.866   23.150 
319 1   -6.767   -6.593   23.152 
320 1   -6.047   -7.256   23.149 
321 1   -5.270   -7.835   23.151 
322 2   -4.434   -8.343   23.147 
323 1   -3.560   -8.755   23.147 
324 1   -2.641   -9.078   23.148 
325 1   -1.692   -9.294   23.145 
326 1   -0.729   -9.420   23.148 
327 1    0.252   -9.448   23.147 
328 1    1.215   -9.373   23.147 
329 1    2.176   -9.200   23.150 
330 1    3.113   -8.923   23.152 
331 1    4.009   -8.555   23.145 
332 2    4.873   -8.104   23.150 
333 1    5.680   -7.560   23.150 
334 1    6.425   -6.936   23.150 
335 1    7.109   -6.238   23.146 
336 1    7.712   -5.470   23.147 
337 1    8.231   -4.656   23.150 
338 1    8.673   -3.783   23.145 
339 1    9.010   -2.873   23.150 
340 1    9.258   -1.932   23.146 
341 1    9.409   -0.962   23.144 
342 1   10.355    0.002   22.766 
343 1   10.301    0.971   22.767 
344 1   10.171    1.935   22.769 
345 1    9.945    2.874   22.768 
346 1    9.627    3.795   22.761 
347 1    9.232    4.677   22.767 
348 1    8.760    5.524   22.768 
349 1    8.196    6.321   22.766 
350 1    7.578    7.055   22.768 
351 1    6.875    7.731   22.768 
352 1    6.121    8.344   22.768 
353 1    5.320    8.882   22.762 
354 1    4.465    9.343   22.764 
355 1    3.569    9.718   22.760 
356 1    2.648   10.012   22.762 
357 1    1.696   10.208   22.763 
358 1    0.727   10.322   22.763 
359 1   -0.233   10.343   22.767 
360 1   -1.201   10.282   22.761 
361 1   -2.162   10.125   22.761 
362 1   -3.100    9.871   22.762 
363 1   -4.007    9.544   22.768 
364 1   -4.880    9.120   22.765 
365 1   -5.721    8.628   22.767 
366 1   -6.500    8.047   22.766 
367 1   -7.219    7.407   22.769 
368 1   -7.889    6.695   22.766 
369 1   -8.478    5.929   22.766 
370 1   -8.991    5.109   22.766 
371 1   -9.432    4.239   22.767 
372 1   -9.785    3.340   22.769 
373 1  -10.055    2.404   22.769 
374 1  -10.238    1.460   22.765 
375 1  -10.333    0.487   22.769 
376 1  -10.332   -0.481   22.759 
377 1  -10.234   -1.445   22.761 
378 1  -10.062   -2.398   22.767 
379 1   -9.784   -3.333   22.766 
380 1   -9.435   -4.236   22.760 
381 1   -8.992   -5.095   22.767 
382 1   -8.473   -5.918   22.769 
383 1   -7.890   -6.682   22.764 
384 1   -7.224   -7.392   22.767 
385 1   -6.501   -8.042   22.764 
386 1   -5.719   -8.611   22.763 
387 1   -4.883   -9.115   22.765 
388 1   -4.015   -9.526   22.768 
389 1   -3.098   -9.864   22.762 
390 1   -2.160  -10.114   22.766 
391 1   -1.207  -10.273   22.761 
392 1   -0.238  -10.336   22.769 
393 1    0.737  -10.315   22.765 
394 1    1.693  -10.198   22.767 
395 1    2.641   -9.997   22.759 
396 1    3.566   -9.708   22.765 
397 1    4.467   -9.327   22.762 
398 1    5.322   -8.873   22.764 
399 1    6.121   -8.332   22.762 
400 1    6.882   -7.726   22.765 
401 1    7.570   -7.046   22.767 
402 1    8.203   -6.310   22.761 
403 1    8.758   -5.514   22.761 
404 1    9.232   -4.668   22.760 
405 1    9.635   -3.789   22.768 
406 1    9.947   -2.868   22.769 
407 1   10.174   -1.922   22.766 
408 1   10.300   -0.964   22.761 
409 1   11.223    0.004   22.346 
410 1   11.184    0.966   22.351 
411 1   11.061    1.922   22.344 
412 1   10.855    2.868   22.351 
413 1   10.571    3.796   22.343 
414 1   10.204    4.683   22.349 
415 1    9.764    5.543   22.341 
416 1    9.247    6.364   22.346 
417 1    8.671    7.133   22.342 
418 1    8.027    7.854   22.344 
419 1    7.315    8.517   22.341 
420 1    6.560    9.111   22.342 
421 1    5.753    9.641   22.343 
422 1    4.905   10.098   22.349 
423 1    4.021   10.483   22.342 
424 1    3.101   10.793   22.351 
425 1    2.165   11.011   22.343 
426 1    1.207   11.157   22.346 
427 1    0.244   11.224   22.344 
428 1   -0.715   11.197   22.342 
429 1   -1.680   11.100   22.347 
430 1   -2.630   10.910   22.345 
431 1   -3.554   10.647   22.348 
432 1   -4.456   10.303   22.347 
433 1   -5.319    9.883   22.342 
434 1   -6.150    9.384   22.350 
435 1   -6.940    8.815   22.343 
436 1   -7.669    8.188   22.345 
437 1   -8.344    7.501   22.348 
438 1   -8.954    6.751   22.344 
439 1   -9.500    5.964   22.342 
440 1   -9.981    5.125   22.349 
441 1  -10.381    4.244   22.343 
442 1  -10.707    3.338   22.345 
443 1  -10.952    2.396   22.347 
444 1  -11.123    1.448   22.342 
445 1  -11.208    0.484   22.344 
446 1  -11.209   -0.479   22.350 
447 1  -11.120   -1.440   22.347 
448 1  -10.958   -2.390   22.344 
449 1  -10.711   -3.322   22.344 
450 1  -10.380   -4.229   22.344 
451 1   -9.981   -5.110   22.344 
452 1   -9.505   -5.950   22.342 
453 1   -8.955   -6.742   22.344 
454 1   -8.346   -7.488   22.345 
455 1   -7.669   -8.177   22.346 
456 1   -6.941   -8.811   22.342 
457 1   -6.150   -9.370   22.344 
458 1   -5.329   -9.869   22.345 
459 1   -4.451  -10.287   22.344 
460 1   -3.557  -10.635   22.342 
461 1   -2.627  -10.903   22.343 
462 1   -1.681  -11.093   22.346 
463 1   -0.716  -11.193   22.345 
464 1    0.242  -11.207   22.346 
465 1    1.206  -11.154   22.344 
466 1    2.169  -11.008   22.348 
467 1    3.101  -10.783   22.347 
468 1    4.019  -10.468   22.346 
469 1    4.902  -10.089   22.350 
470 1    5.752   -9.627   22.349 
471 1    6.566   -9.096   22.349 
472 1    7.316   -8.500   22.351 
473 1    8.020   -7.840   22.341 
474 1    8.664   -7.120   22.342 
475 1    9.248   -6.357   22.347 
476 1    9.757   -5.532   22.346 
477 1   10.199   -4.675   22.344 
478 1   10.566   -3.780   22.341 
479 1   10.853   -2.864   22.345 
480 1   11.058   -1.913   22.346 
481 1   11.181   -0.957   22.343 
482 1   12.084    0.008   21.895 
483 1   12.039    0.973   21.896 
484 1   11.931    1.941   21.896 
485 1   11.727    2.895   21.893 
486 1   11.460    3.829   21.892 
487 1   11.117    4.743   21.898 
488 1   10.696    5.617   21.893 
489 1   10.208    6.460   21.896 
490 1    9.665    7.263   21.890 
491 1    9.046    8.018   21.891 
492 1    8.367    8.712   21.896 
493 1    7.644    9.359   21.898 
494 1    6.870    9.947   21.892 
495 1    6.041   10.468   21.892 
496 1    5.183   10.919   21.890 
497 1    4.287   11.299   21.893 
498 1    3.360   11.607   21.896 
499 1    2.418   11.837   21.890 
500 1    1.461   11.996   21.892 
501 1    0.493   12.075   21.897 
502 1   -0.483   12.070   21.893 
503 1   -1.454   11.993   21.896 
504 1   -2.411   11.840   21.895 
505 1   -3.358   11.610   21.894 
506 1   -4.279   11.298   21.892 
507 1   -5.176   10.915   21.898 
508 1   -6.037   10.464   21.899 
509 1   -6.856    9.948   21.893 
510 1   -7.638    9.364   21.892 
511 1   -8.365    8.713   21.897 
512 1   -9.030    8.017   21.890 
513 1   -9.649    7.258   21.895 
514 1  -10.206    6.460   21.891 
515 1  -10.689    5.615   21.892 
516 1  -11.108    4.741   21.898 
517 1  -11.452    3.832   21.894 
518 1  -11.719    2.891   21.896 
519 1  -11.911    1.944   21.892 
520 1  -12.033    0.973   21.889 
521 1  -12.074    0.009   21.894 
522 1  -12.036   -0.965   21.896 
523 1  -11.915   -1.937   21.893 
524 1  -11.718   -2.884   21.891 
525 1  -11.453   -3.815   21.897 
526 1  -11.105   -4.730   21.890 
527 1  -10.687   -5.608   21.891 
528 1  -10.203   -6.449   21.891 
529 1   -9.649   -7.248   21.893 
530 1   -9.039   -8.007   21.891 
531 1   -8.365   -8.703   21.892 
532 1   -7.633   -9.350   21.894 
533 1   -6.857   -9.938   21.897 
534 1   -6.034  -10.457   21.899 
535 1   -5.169  -10.907   21.895 
536 1   -4.282  -11.286   21.894 
537 1   -3.350  -11.600   21.891 
538 1   -2.409  -11.827   21.892 
539 1   -1.447  -11.985   21.890 
540 1   -0.486  -12.065   21.895 
541 1    0.488  -12.060   21.894 
542 1    1.456  -11.990   21.894 
543 1    2.424  -11.833   21.893 
544 1    3.365  -11.595   21.897 
545 1    4.292  -11.292   21.898 
546 1    5.180  -10.910   21.896 
547 1    6.040  -10.456   21.892 
548 1    6.869   -9.932   21.891 
549 1    7.643   -9.351   21.893 
550 1    8.369   -8.708   21.895 
551 1    9.049   -8.001   21.894 
552 1    9.665   -7.250   21.893 
553 1   10.215   -6.448   21.898 
554 1   10.702   -5.609   21.890 
555 1   11.112   -4.731   21.891 
556 1   11.462   -3.818   21.893 
557 1   11.733   -2.883   21.889 
558 1   11.924   -1.936   21.893 
559 1   12.040   -0.967   21.896 
560 1   12.919    0.004   21.412 
561 1   12.883    0.969   21.412 
562 1   12.779    1.935   21.412 
563 1   12.597    2.878   21.405 
564 1   12.351    3.816   21.405 
565 1   12.029    4.720   21.405 
566 1   11.642    5.614   21.407 
567 1   11.193    6.465   21.406 
568 1   10.677    7.281   21.413 
569 1   10.107    8.059   21.407 
570 1    9.477    8.793   21.409 
571 1    8.791    9.472   21.409 
572 1    8.059   10.109   21.413 
573 1    7.282   10.680   21.413 
574 1    6.468   11.195   21.413 
575 1    5.610   11.648   21.407 
576 1    4.728   12.027   21.410 
577 1    3.808   12.351   21.414 
578 1    2.877   12.598   21.406 
579 1    1.927   12.782   21.410 
580 1    0.967   12.891   21.411 
581 1    0.001   12.923   21.411 
582 1   -0.962   12.886   21.407 
583 1   -1.924   12.777   21.414 
584 1   -2.874   12.599   21.412 
585 1   -3.806   12.349   21.409 
586 1   -4.718   12.026   21.410 
587 1   -5.604   11.639   21.412 
588 1   -6.458   11.192   21.408 
589 1   -7.274   10.679   21.408 
590 1   -8.046   10.102   21.411 
591 1   -8.784    9.471   21.405 
592 1   -9.463    8.796   21.405 
593 1  -10.092    8.057   21.409 
594 1  -10.664    7.277   21.412 
595 2  -11.182    6.461   21.411 
596 1  -11.630    5.614   21.414 
597 1  -12.020    4.719   21.409 
598 1  -12.338    3.816   21.408 
599 1  -12.584    2.882   21.411 
600 1  -12.767    1.928   21.413 
601 1  -12.877    0.975   21.413 
602 1  -12.912    0.005   21.409 
603 1  -12.872   -0.958   21.409 
604 1  -12.765   -1.918   21.408 
605 1  -12.592   -2.872   21.408 
606 1  -12.337   -3.803   21.406 
607 1  -12.018   -4.712   21.409 
608 1  -11.633   -5.603   21.408 
609 2  -11.181   -6.456   21.405 
610 1  -10.671   -7.273   21.406 
611 1  -10.091   -8.047   21.409 
612 1   -9.469   -8.783   21.408 
613 1   -8.778   -9.465   21.406 
614 1   -8.050  -10.094   21.410 
615 1   -7.268  -10.668   21.413 
616 1   -6.454  -11.184   21.408 
617 1   -5.595  -11.629   21.414 
618 1   -4.718  -12.017   21.412 
619 1   -3.807  -12.338   21.409 
620 1   -2.873  -12.591   21.409 
621 1   -1.922  -12.770   21.413 
622 1   -0.961  -12.879   21.412 
623 1    0.006  -12.913   21.414 
624 1    0.971  -12.881   21.406 
625 1    1.927  -12.773   21.408 
626 1    2.878  -12.587   21.414 
627 1    3.809  -12.342   21.406 
628 1    4.723  -12.020   21.409 
629 1    5.610  -11.635   21.405 
630 1    6.465  -11.180   21.413 
631 1    7.278  -10.667   21.408 
632 1    8.058  -10.096   21.413 
633 1    8.794   -9.469   21.411 
634 1    9.479   -8.783   21.412 
635 1   10.103   -8.050   21.414 
636 1   10.680   -7.272   21.407 
637 1   11.194   -6.454   21.411 
638 1   11.644   -5.601   21.412 
639 1   12.033   -4.718   21.410 
640 1   12.348   -3.804   21.407 
641 1   12.598   -2.873   21.405 
642 1   12.775   -1.917   21.413 
643 1   12.887   -0.955   21.408 
644 2   13.739    0.006   20.894 
645 1   13.705    0.971   20.890 
646 1   13.602    1.939   20.896 
647 1   13.434    2.891   20.888 
648 1   13.199    3.832   20.893 
649 2   12.892    4.759   20.889 
650 1   12.533    5.647   20.890 
651 1   12.104    6.522   20.891 
652 1   11.606    7.357   20.894 
653 1   11.067    8.160   20.889 
654 2   10.455    8.920   20.897 
655 1    9.808    9.635   20.894 
656 1    9.097   10.300   20.896 
657 1    8.347   10.914   20.891 
658 1    7.557   11.478   20.888 
659 1    6.737   11.982   20.895 
660 2    5.867   12.424   20.893 
661 1    4.977   12.813   20.895 
662 1    4.065   13.125   20.894 
663 1    3.133   13.382   20.891 
664 1    2.174   13.565   20.889 
665 2    1.219   13.687   20.892 
666 1    0.248   13.739   20.895 
667 1   -0.722   13.721   20.887 
668 1   -1.684   13.641   20.892 
669 1   -2.642   13.489   20.896 
670 2   -3.593   13.267   20.893 
671 1   -4.517   12.973   20.897 
672 1   -5.420   12.626   20.896 
673 1   -6.300   12.213   20.892 
674 1   -7.140   11.737   20.893 
675 2   -7.952   11.204   20.892 
676 1   -8.724   10.613   20.895 
677 1   -9.446    9.969   20.888 
678 1  -10.127    9.282   20.896 
679 1  -10.754    8.543   20.893 
680 1  -11.336    7.767   20.893 
681 1  -11.854    6.946   20.890 
682 1  -12.316    6.086   20.888 
683 1  -12.715    5.207   20.897 
684 1  -13.045    4.300   20.890 
685 1  -13.316    3.367   20.889 
686 2  -13.516    2.413   20.890 
687 1  -13.654    1.462   20.897 
688 1  -13.726    0.489   20.896 
689 1  -13.724   -0.482   20.896 
690 1  -13.659   -1.451   20.892 
691 2  -13.515   -2.410   20.896 
692 1  -13.315   -3.352   20.888 
693 1  -13.047   -4.291   20.895 
694 1  -12.711   -5.196   20.890 
695 1  -12.312   -6.075   20.896 
696 1  -11.851   -6.932   20.890 
697 1  -11.331   -7.756   20.895 
698 1  -10.760   -8.537   20.896 
699 1  -10.127   -9.271   20.896 
700 1   -9.451   -9.963   20.896 
701 1   -8.722  -10.605   20.895 
702 2   -7.956  -11.199   20.895 
703 1   -7.141  -11.722   20.892 
704 1   -6.301  -12.199   20.892 
705 1   -5.425  -12.614   20.890 
706 1   -4.515  -12.963   20.891 
707 2   -3.590  -13.258   20.888 
708 1   -2.647  -13.478   20.892 
709 1   -1.685  -13.630   20.893 
710 1   -0.721  -13.712   20.895 
711 1    0.251  -13.733   20.890 
712 2    1.215  -13.676   20.891 
713 1    2.183  -13.560   20.889 
714 1    3.134  -13.368   20.893 
715 1    4.062  -13.120   20.889 
716 1    4.980  -12.795   20.892 
717 2    5.867  -12.414   20.897 
718 1    6.733  -11.973   20.888 
719 1    7.566  -11.470   20.892 
720 1    8.354  -10.902   20.897 
721 1    9.100  -10.288   20.892 
722 1    9.801   -9.619   20.896 
723 2   10.463   -8.905   20.891 
724 1   11.062   -8.151   20.895 
725 1   11.609   -7.347   20.889 
726 1   12.096   -6.509   20.893 
727 1   12.533   -5.645   20.896 
728 2   12.897   -4.748   20.896 
729 1   13.201   -3.822   20.891 
730 1   13.435   -2.881   20.889 
731 1   13.609   -1.926   20.890 
732 1   13.708   -0.963   20.892 
733 1   14.543    0.008   20.347 
734 1   14.511    0.971   20.345 
735 1   14.415    1.945   20.341 
736 1   14.251    2.897   20.344 
737 1   14.021    3.843   20.341 
738 1   13.738    4.774   20.341 
739 1   13.388    5.684   20.342 
740 1   12.977    6.564   20.342 
741 1   12.515    7.414   20.345 
742 1   11.992    8.236   20.345 
743 1   11.419    9.017   20.340 
744 1   10.785    9.757   20.341 
745 1   10.113   10.450   20.341 
746 1    9.394   11.102   20.344 
747 1    8.633   11.710   20.348 
748 1    7.822   12.259   20.346 
749 1    6.988   12.756   20.348 
750 1    6.123   13.188   20.340 
751 1    5.231   13.570   20.347 
752 1    4.307   13.888   20.339 
753 1    3.372   14.144   20.339 
754 1    2.428   14.337   20.339 
755 1    1.458   14.474   20.339 
756 1    0.488   14.535   20.344 
757 1   -0.479   14.533   20.346 
758 1   -1.453   14.474   20.347 
759 1   -2.410   14.342   20.340 
760 1   -3.362   14.144   20.346 
761 1   -4.300   13.886   20.341 
762 1   -5.224   13.570   20.348 
763 1   -6.116   13.189   20.341 
764 1   -6.985   12.752   20.344 
765 1   -7.820   12.262   20.348 
766 1   -8.614   11.709   20.341 
767 1   -9.385   11.102   20.347 
768 1  -10.102   10.450   20.345 
769 1  -10.774    9.756   20.342 
770 1  -11.402    9.019   20.341 
771 1  -11.984    8.236   20.346 
772 1  -12.499    7.411   20.347 
773 1  -12.965    6.566   20.345 
774 1  -13.379    5.682   20.340 
775 1  -13.726    4.777   20.341 
776 1  -14.020    3.844   20.342 
777 1  -14.240    2.905   20.343 
778 1  -14.407    1.945   20.342 
779 1  -14.496    0.971   20.343 
780 1  -14.533    0.005   20.344 
781 1  -14.498   -0.971   20.339 
782 1  -14.403   -1.929   20.345 
783 1  -14.242   -2.894   20.340 
784 1  -14.017   -3.833   20.348 
785 1  -13.732   -4.762   20.343 
786 1  -13.384   -5.669   20.342 
787 1  -12.969   -6.547   20.346 
788 1  -12.504   -7.401   20.346 
789 1  -11.976   -8.221   20.342 
790 1  -11.408   -9.009   20.342 
791 1  -10.779   -9.747   20.343 
792 1  -10.105  -10.444   20.348 
793 1   -9.380  -11.092   20.346 
794 1   -8.615  -11.703   20.345 
795 1   -7.821  -12.244   20.346 
796 1   -6.981  -12.740   20.342 
797 1   -6.109  -13.178   20.343 
798 1   -5.217  -13.556   20.343 
799 1   -4.306  -13.884   20.344 
800 1   -3.363  -14.136   20.349 
801 1   -2.413  -14.331   20.348 
802 1   -1.449  -14.457   20.347 
803 1   -0.485  -14.528   20.344 
804 1    0.489  -14.528   20.342 
805 1    1.456  -14.457   20.342 
806 1    2.425  -14.335   20.346 
807 1    3.370  -14.132   20.340 
808 1    4.315  -13.881   20.339 
809 1    5.230  -13.564   20.342 
810 1    6.126  -13.183   20.341 
811 1    6.994  -12.747   20.344 
812 1    7.832  -12.247   20.341 
813 1    8.629  -11.694   20.341 
814 1    9.395  -11.094   20.342 
815 1   10.109  -10.443   20.342 
816 1   10.783   -9.747   20.342 
817 1   11.416   -9.004   20.342 
818 1   11.992   -8.218   20.348 
819 1   12.517   -7.404   20.347 
820 1   12.977   -6.556   20.348 
821 1   13.392   -5.673   20.342 
822 1   13.735   -4.759   20.344 
823 1   14.030   -3.832   20.347 
824 1   14.250   -2.891   20.340 
825 1   14.413   -1.936   20.345 
826 1   14.511   -0.964   20.344 
827 1   15.319    0.008   19.768 
828 1   15.289    0.976   19.767 
829 1   15.200    1.941   19.765 
830 1   15.041    2.908   19.767 
831 1   14.826    3.850   19.762 
832 1   14.554    4.785   19.768 
833 1   14.226    5.699   19.769 
834 1   13.837    6.589   19.762 
835 1   13.391    7.446   19.763 
836 1   12.884    8.282   19.761 
837 1   12.333    9.081   19.764 
838 1   11.739    9.853   19.767 
839 1   11.084   10.572   19.768 
840 1   10.396   11.256   19.769 
841 1    9.658   11.892   19.763 
842 1    8.886   12.485   19.766 
843 1    8.084   13.018   19.768 
844 1    7.235   13.503   19.760 
845 1    6.368   13.941   19.764 
846 1    5.468   14.312   19.765 
847 1    4.553   14.630   19.767 
848 1    3.612   14.887   19.763 
849 1    2.663   15.091   19.766 
850 1    1.700   15.227   19.765 
851 1    0.733   15.299   19.765 
852 1   -0.234   15.315   19.760 
853 1   -1.207   15.271   19.765 
854 1   -2.179   15.160   19.767 
855 1   -3.135   14.991   19.761 
856 1   -4.077   14.763   19.767 
857 1   -5.006   14.480   19.762 
858 1   -5.917   14.132   19.766 
859 1   -6.795   13.726   19.768 
860 1   -7.650   13.270   19.769 
861 1   -8.480   12.757   19.765 
862 1   -9.267   12.196   19.764 
863 1  -10.029   11.578   19.765 
864 1  -10.741   10.918   19.763 
865 1  -11.407   10.221   19.763 
866 1  -12.038    9.472   19.766 
867 1  -12.609    8.694   19.761 
868 1  -13.131    7.872   19.766 
869 1  -13.609    7.026   19.767 
870 1  -14.028    6.145   19.767 
871 1  -14.387    5.247   19.761 
872 1  -14.693    4.316   19.768 
873 1  -14.930    3.378   19.765 
874 1  -15.120    2.428   19.760 
875 1  -15.236    1.461   19.764 
876 1  -15.307    0.487   19.760 
877 1  -15.298   -0.479   19.764 
878 1  -15.242   -1.449   19.769 
879 1  -15.113   -2.413   19.766 
880 1  -14.936   -3.372   19.767 
881 1  -14.693   -4.314   19.763 