This File produces a vesicle with diameter =    50.000000

21702 atoms
3202 bonds
8346 ellipsoids

7 atom types
3 bond types

-35 35 xlo xhi
-35 35 ylo yhi
-35 35 zlo zhi


Atoms

1 2  8.147237e-03 3.465390e-03 2.500694e+01  1 2.387324e-01 5.235988e-01 2.387324e-01 0 
2 2  9.057919e-03 7.571508e-03 -2.499069e+01  1 2.387324e-01 5.235988e-01 2.387324e-01 0 
3 1  9.706541e-01 3.602129e-03 2.498275e+01  1 2.387324e-01 5.235988e-01 2.387324e-01 0 
4 1  4.938259e-01 8.450775e-01 2.498173e+01  1 2.387324e-01 5.235988e-01 2.387324e-01 0 
5 1  -4.783685e-01 8.483986e-01 2.498729e+01  1 2.387324e-01 5.235988e-01 2.387324e-01 0 
6 1  -9.684089e-01 8.401639e-03 2.498363e+01  1 2.387324e-01 5.235988e-01 2.387324e-01 0 
7 1  -4.819072e-01 -8.370711e-01 2.498678e+01  1 2.387324e-01 5.235988e-01 2.387324e-01 0 
8 1  4.901610e-01 -8.351552e-01 2.498798e+01  1 2.387324e-01 5.235988e-01 2.387324e-01 0 
9 1  1.946886e+00 8.285529e-03 2.492949e+01  1 2.387324e-01 5.235988e-01 2.387324e-01 0 
10 1  1.725052e+00 9.018401e-01 2.493141e+01  1 2.387324e-01 5.235988e-01 2.387324e-01 0 
11 1  1.102094e+00 1.601955e+00 2.493291e+01  1 2.387324e-01 5.235988e-01 2.387324e-01 0 
12 1  2.432229e-01 1.931950e+00 2.493339e+01  1 2.387324e-01 5.235988e-01 2.387324e-01 0 
13 1  -6.774081e-01 1.816438e+00 2.493193e+01  1 2.387324e-01 5.235988e-01 2.387324e-01 0 
14 1  -1.445244e+00 1.290377e+00 2.492746e+01  1 2.387324e-01 5.235988e-01 2.387324e-01 0 
15 1  -1.873013e+00 4.721436e-01 2.492778e+01  1 2.387324e-01 5.235988e-01 2.387324e-01 0 
16 1  -1.879597e+00 -4.537823e-01 2.492668e+01  1 2.387324e-01 5.235988e-01 2.387324e-01 0 
17 1  -1.445880e+00 -1.276772e+00 2.493082e+01  1 2.387324e-01 5.235988e-01 2.387324e-01 0 
18 1  -6.778224e-01 -1.807910e+00 2.493261e+01  1 2.387324e-01 5.235988e-01 2.387324e-01 0 
19 1  2.414391e-01 -1.918166e+00 2.492578e+01  1 2.387324e-01 5.235988e-01 2.387324e-01 0 
20 1  1.110113e+00 -1.591823e+00 2.492892e+01  1 2.387324e-01 5.235988e-01 2.387324e-01 0 
21 1  1.721961e+00 -8.952144e-01 2.493114e+01  1 2.387324e-01 5.235988e-01 2.387324e-01 0 
22 1  2.902680e+00 7.861985e-04 2.483861e+01  1 2.387324e-01 5.235988e-01 2.387324e-01 0 
23 1  2.753558e+00 9.429417e-01 2.483612e+01  1 2.387324e-01 5.235988e-01 2.387324e-01 0 
24 1  2.299680e+00 1.788993e+00 2.483143e+01  1 2.387324e-01 5.235988e-01 2.387324e-01 0 
25 1  1.594207e+00 2.435896e+00 2.483537e+01  1 2.387324e-01 5.235988e-01 2.387324e-01 0 
26 1  7.200555e-01 2.814327e+00 2.483877e+01  1 2.387324e-01 5.235988e-01 2.387324e-01 0 
27 1  -2.322406e-01 2.898505e+00 2.484087e+01  1 2.387324e-01 5.235988e-01 2.387324e-01 0 
28 1  -1.161928e+00 2.663317e+00 2.483945e+01  1 2.387324e-01 5.235988e-01 2.387324e-01 0 
29 1  -1.959135e+00 2.143868e+00 2.483156e+01  1 2.387324e-01 5.235988e-01 2.387324e-01 0 
30 1  -2.550805e+00 1.387780e+00 2.483863e+01  1 2.387324e-01 5.235988e-01 2.387324e-01 0 
31 1  -2.855678e+00 4.804230e-01 2.483821e+01  1 2.387324e-01 5.235988e-01 2.387324e-01 0 
32 1  -2.862421e+00 -4.766391e-01 2.483851e+01  1 2.387324e-01 5.235988e-01 2.387324e-01 0 
33 1  -2.549748e+00 -1.380748e+00 2.483297e+01  1 2.387324e-01 5.235988e-01 2.387324e-01 0 
34 1  -1.965228e+00 -2.129089e+00 2.483420e+01  1 2.387324e-01 5.235988e-01 2.387324e-01 0 
35 1  -1.164878e+00 -2.650879e+00 2.483693e+01  1 2.387324e-01 5.235988e-01 2.387324e-01 0 
36 1  -2.314373e-01 -2.889661e+00 2.484073e+01  1 2.387324e-01 5.235988e-01 2.387324e-01 0 
37 1  7.194264e-01 -2.809293e+00 2.483547e+01  1 2.387324e-01 5.235988e-01 2.387324e-01 0 
38 1  1.590591e+00 -2.426069e+00 2.483592e+01  1 2.387324e-01 5.235988e-01 2.387324e-01 0 
39 1  2.299843e+00 -1.781822e+00 2.484068e+01  1 2.387324e-01 5.235988e-01 2.387324e-01 0 
40 1  2.745411e+00 -9.416850e-01 2.483859e+01  1 2.387324e-01 5.235988e-01 2.387324e-01 0 
41 1  3.867357e+00 1.208896e-03 2.470954e+01  1 2.387324e-01 5.235988e-01 2.387324e-01 0 
42 1  3.745423e+00 9.674601e-01 2.470177e+01  1 2.387324e-01 5.235988e-01 2.387324e-01 0 
43 1  3.392801e+00 1.863189e+00 2.470006e+01  1 2.387324e-01 5.235988e-01 2.387324e-01 0 
44 1  2.823936e+00 2.646758e+00 2.470133e+01  1 2.387324e-01 5.235988e-01 2.387324e-01 0 
45 1  2.071751e+00 3.261700e+00 2.470694e+01  1 2.387324e-01 5.235988e-01 2.387324e-01 0 
46 1  1.198621e+00 3.681174e+00 2.470752e+01  1 2.387324e-01 5.235988e-01 2.387324e-01 0 
47 1  2.470137e-01 3.860957e+00 2.470620e+01  1 2.387324e-01 5.235988e-01 2.387324e-01 0 
48 1  -7.173852e-01 3.800066e+00 2.470313e+01  1 2.387324e-01 5.235988e-01 2.387324e-01 0 
49 1  -1.637679e+00 3.502742e+00 2.470629e+01  1 2.387324e-01 5.235988e-01 2.387324e-01 0 
50 1  -2.454803e+00 2.984716e+00 2.470020e+01  1 2.387324e-01 5.235988e-01 2.387324e-01 0 
51 1  -3.122448e+00 2.274531e+00 2.470842e+01  1 2.387324e-01 5.235988e-01 2.387324e-01 0 
52 1  -3.584901e+00 1.423413e+00 2.470078e+01  1 2.387324e-01 5.235988e-01 2.387324e-01 0 
53 1  -3.825958e+00 4.861159e-01 2.470922e+01  1 2.387324e-01 5.235988e-01 2.387324e-01 0 
54 1  -3.830883e+00 -4.769555e-01 2.470354e+01  1 2.387324e-01 5.235988e-01 2.387324e-01 0 
55 1  -3.590509e+00 -1.415358e+00 2.470109e+01  1 2.387324e-01 5.235988e-01 2.387324e-01 0 
56 1  -3.120225e+00 -2.269998e+00 2.470288e+01  1 2.387324e-01 5.235988e-01 2.387324e-01 0 
57 1  -2.452752e+00 -2.972627e+00 2.470873e+01  1 2.387324e-01 5.235988e-01 2.387324e-01 0 
58 1  -1.641369e+00 -3.490407e+00 2.470755e+01  1 2.387324e-01 5.235988e-01 2.387324e-01 0 
59 1  -7.179957e-01 -3.786804e+00 2.470168e+01  1 2.387324e-01 5.235988e-01 2.387324e-01 0 
60 1  2.447960e-01 -3.853869e+00 2.470149e+01  1 2.387324e-01 5.235988e-01 2.387324e-01 0 
61 1  1.201236e+00 -3.669047e+00 2.470868e+01  1 2.387324e-01 5.235988e-01 2.387324e-01 0 
62 1  2.072434e+00 -3.260895e+00 2.470745e+01  1 2.387324e-01 5.235988e-01 2.387324e-01 0 
63 1  2.821043e+00 -2.636510e+00 2.470767e+01  1 2.387324e-01 5.235988e-01 2.387324e-01 0 
64 1  3.392137e+00 -1.857063e+00 2.470188e+01  1 2.387324e-01 5.235988e-01 2.387324e-01 0 
65 1  3.750517e+00 -9.583199e-01 2.470168e+01  1 2.387324e-01 5.235988e-01 2.387324e-01 0 
66 2  4.827399e+00 8.056766e-04 2.453785e+01  1 2.387324e-01 5.235988e-01 2.387324e-01 0 
67 1  4.724658e+00 9.706074e-01 2.453250e+01  1 2.387324e-01 5.235988e-01 2.387324e-01 0 
68 1  4.428747e+00 1.909204e+00 2.453644e+01  1 2.387324e-01 5.235988e-01 2.387324e-01 0 
69 1  3.955772e+00 2.754307e+00 2.453823e+01  1 2.387324e-01 5.235988e-01 2.387324e-01 0 
70 1  3.321884e+00 3.501477e+00 2.453295e+01  1 2.387324e-01 5.235988e-01 2.387324e-01 0 
71 2  2.556853e+00 4.092001e+00 2.453512e+01  1 2.387324e-01 5.235988e-01 2.387324e-01 0 
72 1  1.675792e+00 4.527508e+00 2.453947e+01  1 2.387324e-01 5.235988e-01 2.387324e-01 0 
73 1  7.376926e-01 4.765681e+00 2.454048e+01  1 2.387324e-01 5.235988e-01 2.387324e-01 0 
74 1  -2.415826e-01 4.812257e+00 2.453299e+01  1 2.387324e-01 5.235988e-01 2.387324e-01 0 
75 1  -1.198303e+00 4.670133e+00 2.453876e+01  1 2.387324e-01 5.235988e-01 2.387324e-01 0 
76 2  -2.118234e+00 4.331005e+00 2.453694e+01  1 2.387324e-01 5.235988e-01 2.387324e-01 0 
77 1  -2.947042e+00 3.818869e+00 2.453326e+01  1 2.387324e-01 5.235988e-01 2.387324e-01 0 
78 1  -3.653039e+00 3.140199e+00 2.453828e+01  1 2.387324e-01 5.235988e-01 2.387324e-01 0 
79 1  -4.206272e+00 2.345968e+00 2.453438e+01  1 2.387324e-01 5.235988e-01 2.387324e-01 0 
80 1  -4.592125e+00 1.445751e+00 2.453771e+01  1 2.387324e-01 5.235988e-01 2.387324e-01 0 
81 2  -4.789571e+00 4.971309e-01 2.453374e+01  1 2.387324e-01 5.235988e-01 2.387324e-01 0 
82 1  -4.784780e+00 -4.790489e-01 2.453628e+01  1 2.387324e-01 5.235988e-01 2.387324e-01 0 
83 1  -4.591006e+00 -1.435156e+00 2.453897e+01  1 2.387324e-01 5.235988e-01 2.387324e-01 0 
84 1  -4.206936e+00 -2.335942e+00 2.453758e+01  1 2.387324e-01 5.235988e-01 2.387324e-01 0 
85 1  -3.646378e+00 -3.138032e+00 2.453386e+01  1 2.387324e-01 5.235988e-01 2.387324e-01 0 
86 1  -2.946150e+00 -3.807704e+00 2.453791e+01  1 2.387324e-01 5.235988e-01 2.387324e-01 0 
87 2  -2.114162e+00 -4.320084e+00 2.453469e+01  1 2.387324e-01 5.235988e-01 2.387324e-01 0 
88 1  -1.200058e+00 -4.662924e+00 2.453257e+01  1 2.387324e-01 5.235988e-01 2.387324e-01 0 
89 1  -2.402134e-01 -4.803085e+00 2.453795e+01  1 2.387324e-01 5.235988e-01 2.387324e-01 0 
90 1  7.352279e-01 -4.753141e+00 2.454086e+01  1 2.387324e-01 5.235988e-01 2.387324e-01 0 
91 1  1.674008e+00 -4.514571e+00 2.453979e+01  1 2.387324e-01 5.235988e-01 2.387324e-01 0 
92 2  2.548986e+00 -4.083912e+00 2.453285e+01  1 2.387324e-01 5.235988e-01 2.387324e-01 0 
93 1  3.324617e+00 -3.491882e+00 2.453826e+01  1 2.387324e-01 5.235988e-01 2.387324e-01 0 
94 1  3.962071e+00 -2.749151e+00 2.453802e+01  1 2.387324e-01 5.235988e-01 2.387324e-01 0 
95 1  4.436701e+00 -1.895078e+00 2.453649e+01  1 2.387324e-01 5.235988e-01 2.387324e-01 0 
96 1  4.720485e+00 -9.671957e-01 2.453573e+01  1 2.387324e-01 5.235988e-01 2.387324e-01 0 
97 1  5.771085e+00 6.831118e-03 2.432996e+01  1 2.387324e-01 5.235988e-01 2.387324e-01 0 
98 1  5.687161e+00 9.834686e-01 2.433454e+01  1 2.387324e-01 5.235988e-01 2.387324e-01 0 
99 1  5.436182e+00 1.926388e+00 2.432863e+01  1 2.387324e-01 5.235988e-01 2.387324e-01 0 
100 1  5.036644e+00 2.814408e+00 2.432904e+01  1 2.387324e-01 5.235988e-01 2.387324e-01 0 
101 1  4.487307e+00 3.631222e+00 2.433173e+01  1 2.387324e-01 5.235988e-01 2.387324e-01 0 
102 1  3.816995e+00 4.328566e+00 2.433239e+01  1 2.387324e-01 5.235988e-01 2.387324e-01 0 
103 1  3.025952e+00 4.915666e+00 2.433062e+01  1 2.387324e-01 5.235988e-01 2.387324e-01 0 
104 1  2.154951e+00 5.359131e+00 2.433477e+01  1 2.387324e-01 5.235988e-01 2.387324e-01 0 
105 1  1.216306e+00 5.641158e+00 2.433566e+01  1 2.387324e-01 5.235988e-01 2.387324e-01 0 
106 1  2.507102e-01 5.769769e+00 2.433429e+01  1 2.387324e-01 5.235988e-01 2.387324e-01 0 
107 1  -7.296784e-01 5.721420e+00 2.433332e+01  1 2.387324e-01 5.235988e-01 2.387324e-01 0 
108 1  -1.681699e+00 5.517951e+00 2.432734e+01  1 2.387324e-01 5.235988e-01 2.387324e-01 0 
109 1  -2.588711e+00 5.157184e+00 2.432695e+01  1 2.387324e-01 5.235988e-01 2.387324e-01 0 
110 1  -3.420815e+00 4.637509e+00 2.433451e+01  1 2.387324e-01 5.235988e-01 2.387324e-01 0 
111 1  -4.157858e+00 3.997570e+00 2.432963e+01  1 2.387324e-01 5.235988e-01 2.387324e-01 0 
112 1  -4.775849e+00 3.229860e+00 2.433518e+01  1 2.387324e-01 5.235988e-01 2.387324e-01 0 
113 1  -5.251304e+00 2.379152e+00 2.433190e+01  1 2.387324e-01 5.235988e-01 2.387324e-01 0 
114 1  -5.570231e+00 1.461506e+00 2.432663e+01  1 2.387324e-01 5.235988e-01 2.387324e-01 0 
115 1  -5.743103e+00 4.959829e-01 2.432828e+01  1 2.387324e-01 5.235988e-01 2.387324e-01 0 
116 1  -5.736369e+00 -4.839696e-01 2.432759e+01  1 2.387324e-01 5.235988e-01 2.387324e-01 0 
117 1  -5.573981e+00 -1.446658e+00 2.433028e+01  1 2.387324e-01 5.235988e-01 2.387324e-01 0 
118 1  -5.243632e+00 -2.373996e+00 2.433490e+01  1 2.387324e-01 5.235988e-01 2.387324e-01 0 
119 1  -4.775905e+00 -3.226062e+00 2.432705e+01  1 2.387324e-01 5.235988e-01 2.387324e-01 0 
120 1  -4.157937e+00 -3.989044e+00 2.433542e+01  1 2.387324e-01 5.235988e-01 2.387324e-01 0 
121 1  -3.427230e+00 -4.626898e+00 2.433548e+01  1 2.387324e-01 5.235988e-01 2.387324e-01 0 
122 1  -2.585984e+00 -5.147923e+00 2.432878e+01  1 2.387324e-01 5.235988e-01 2.387324e-01 0 
123 1  -1.688193e+00 -5.507176e+00 2.432648e+01  1 2.387324e-01 5.235988e-01 2.387324e-01 0 
124 1  -7.245590e-01 -5.717503e+00 2.433079e+01  1 2.387324e-01 5.235988e-01 2.387324e-01 0 
125 1  2.528634e-01 -5.754322e+00 2.433197e+01  1 2.387324e-01 5.235988e-01 2.387324e-01 0 
126 1  1.223337e+00 -5.629772e+00 2.433339e+01  1 2.387324e-01 5.235988e-01 2.387324e-01 0 
127 1  2.150510e+00 -5.342178e+00 2.432946e+01  1 2.387324e-01 5.235988e-01 2.387324e-01 0 
128 1  3.026837e+00 -4.906304e+00 2.432676e+01  1 2.387324e-01 5.235988e-01 2.387324e-01 0 
129 1  3.811651e+00 -4.318759e+00 2.433504e+01  1 2.387324e-01 5.235988e-01 2.387324e-01 0 
130 1  4.493686e+00 -3.614115e+00 2.433441e+01  1 2.387324e-01 5.235988e-01 2.387324e-01 0 
131 1  5.037587e+00 -2.810744e+00 2.432985e+01  1 2.387324e-01 5.235988e-01 2.387324e-01 0 
132 1  5.445169e+00 -1.917872e+00 2.433378e+01  1 2.387324e-01 5.235988e-01 2.387324e-01 0 
133 1  5.684285e+00 -9.652817e-01 2.433050e+01  1 2.387324e-01 5.235988e-01 2.387324e-01 0 
134 1  6.706953e+00 1.110872e-03 2.408945e+01  1 2.387324e-01 5.235988e-01 2.387324e-01 0 
135 1  6.634325e+00 9.840543e-01 2.408987e+01  1 2.387324e-01 5.235988e-01 2.387324e-01 0 
136 1  6.421417e+00 1.932530e+00 2.408673e+01  1 2.387324e-01 5.235988e-01 2.387324e-01 0 
137 1  6.079103e+00 2.853371e+00 2.408556e+01  1 2.387324e-01 5.235988e-01 2.387324e-01 0 
138 1  5.597181e+00 3.705845e+00 2.409038e+01  1 2.387324e-01 5.235988e-01 2.387324e-01 0 
139 1  4.998686e+00 4.481647e+00 2.409041e+01  1 2.387324e-01 5.235988e-01 2.387324e-01 0 
140 1  4.290019e+00 5.162573e+00 2.408662e+01  1 2.387324e-01 5.235988e-01 2.387324e-01 0 
141 1  3.501079e+00 5.724526e+00 2.409285e+01  1 2.387324e-01 5.235988e-01 2.387324e-01 0 
142 1  2.628310e+00 6.170495e+00 2.408543e+01  1 2.387324e-01 5.235988e-01 2.387324e-01 0 
143 1  1.699255e+00 6.494652e+00 2.409310e+01  1 2.387324e-01 5.235988e-01 2.387324e-01 0 
144 1  7.383916e-01 6.668828e+00 2.408816e+01  1 2.387324e-01 5.235988e-01 2.387324e-01 0 
145 1  -2.408371e-01 6.700929e+00 2.408727e+01  1 2.387324e-01 5.235988e-01 2.387324e-01 0 
146 1  -1.216991e+00 6.593684e+00 2.409180e+01  1 2.387324e-01 5.235988e-01 2.387324e-01 0 
147 1  -2.162293e+00 6.346382e+00 2.408692e+01  1 2.387324e-01 5.235988e-01 2.387324e-01 0 
148 1  -3.064264e+00 5.964110e+00 2.408953e+01  1 2.387324e-01 5.235988e-01 2.387324e-01 0 
149 1  -3.899127e+00 5.462276e+00 2.408656e+01  1 2.387324e-01 5.235988e-01 2.387324e-01 0 
150 1  -4.650893e+00 4.829320e+00 2.408484e+01  1 2.387324e-01 5.235988e-01 2.387324e-01 0 
151 1  -5.302269e+00 4.103492e+00 2.409255e+01  1 2.387324e-01 5.235988e-01 2.387324e-01 0 
152 1  -5.845998e+00 3.289734e+00 2.408543e+01  1 2.387324e-01 5.235988e-01 2.387324e-01 0 
153 1  -6.252911e+00 2.397436e+00 2.408969e+01  1 2.387324e-01 5.235988e-01 2.387324e-01 0 
154 1  -6.534473e+00 1.464992e+00 2.409052e+01  1 2.387324e-01 5.235988e-01 2.387324e-01 0 
155 1  -6.681521e+00 4.933915e-01 2.408428e+01  1 2.387324e-01 5.235988e-01 2.387324e-01 0 
156 1  -6.681538e+00 -4.862776e-01 2.408591e+01  1 2.387324e-01 5.235988e-01 2.387324e-01 0 
157 1  -6.540543e+00 -1.451182e+00 2.408437e+01  1 2.387324e-01 5.235988e-01 2.387324e-01 0 
158 1  -6.252938e+00 -2.391070e+00 2.409180e+01  1 2.387324e-01 5.235988e-01 2.387324e-01 0 
159 1  -5.842802e+00 -3.280018e+00 2.409131e+01  1 2.387324e-01 5.235988e-01 2.387324e-01 0 
160 1  -5.305330e+00 -4.087716e+00 2.408784e+01  1 2.387324e-01 5.235988e-01 2.387324e-01 0 
161 1  -4.645490e+00 -4.821277e+00 2.409098e+01  1 2.387324e-01 5.235988e-01 2.387324e-01 0 
162 1  -3.897068e+00 -5.447473e+00 2.408518e+01  1 2.387324e-01 5.235988e-01 2.387324e-01 0 
163 1  -3.063080e+00 -5.959180e+00 2.409250e+01  1 2.387324e-01 5.235988e-01 2.387324e-01 0 
164 1  -2.160653e+00 -6.343258e+00 2.408850e+01  1 2.387324e-01 5.235988e-01 2.387324e-01 0 
165 1  -1.216786e+00 -6.584165e+00 2.408529e+01  1 2.387324e-01 5.235988e-01 2.387324e-01 0 
166 1  -2.435354e-01 -6.697164e+00 2.408525e+01  1 2.387324e-01 5.235988e-01 2.387324e-01 0 
167 1  7.426796e-01 -6.658709e+00 2.408534e+01  1 2.387324e-01 5.235988e-01 2.387324e-01 0 
168 1  1.705306e+00 -6.480801e+00 2.409046e+01  1 2.387324e-01 5.235988e-01 2.387324e-01 0 
169 1  2.627841e+00 -6.160658e+00 2.408628e+01  1 2.387324e-01 5.235988e-01 2.387324e-01 0 
170 1  3.493146e+00 -5.720061e+00 2.408850e+01  1 2.387324e-01 5.235988e-01 2.387324e-01 0 
171 1  4.290917e+00 -5.150596e+00 2.409236e+01  1 2.387324e-01 5.235988e-01 2.387324e-01 0 
172 1  4.996719e+00 -4.470816e+00 2.408756e+01  1 2.387324e-01 5.235988e-01 2.387324e-01 0 
173 1  5.599596e+00 -3.693652e+00 2.408701e+01  1 2.387324e-01 5.235988e-01 2.387324e-01 0 
174 1  6.070565e+00 -2.841910e+00 2.409246e+01  1 2.387324e-01 5.235988e-01 2.387324e-01 0 
175 1  6.420487e+00 -1.929050e+00 2.408634e+01  1 2.387324e-01 5.235988e-01 2.387324e-01 0 
176 1  6.634560e+00 -9.693943e-01 2.409082e+01  1 2.387324e-01 5.235988e-01 2.387324e-01 0 
177 1  7.639641e+00 2.612943e-03 2.381196e+01  1 2.387324e-01 5.235988e-01 2.387324e-01 0 
178 1  7.577799e+00 9.857204e-01 2.381183e+01  1 2.387324e-01 5.235988e-01 2.387324e-01 0 
179 1  7.389984e+00 1.941159e+00 2.380934e+01  1 2.387324e-01 5.235988e-01 2.387324e-01 0 
180 1  7.079804e+00 2.868747e+00 2.380765e+01  1 2.387324e-01 5.235988e-01 2.387324e-01 0 
181 1  6.656376e+00 3.751399e+00 2.380750e+01  1 2.387324e-01 5.235988e-01 2.387324e-01 0 
182 1  6.120274e+00 4.571598e+00 2.381462e+01  1 2.387324e-01 5.235988e-01 2.387324e-01 0 
183 1  5.490715e+00 5.318319e+00 2.381094e+01  1 2.387324e-01 5.235988e-01 2.387324e-01 0 
184 1  4.761081e+00 5.976645e+00 2.380851e+01  1 2.387324e-01 5.235988e-01 2.387324e-01 0 
185 1  3.963836e+00 6.529033e+00 2.381401e+01  1 2.387324e-01 5.235988e-01 2.387324e-01 0 
186 1  3.091607e+00 6.980740e+00 2.381302e+01  1 2.387324e-01 5.235988e-01 2.387324e-01 0 
187 1  2.175527e+00 7.320787e+00 2.380781e+01  1 2.387324e-01 5.235988e-01 2.387324e-01 0 
188 1  1.224506e+00 7.541380e+00 2.380761e+01  1 2.387324e-01 5.235988e-01 2.387324e-01 0 
189 1  2.524568e-01 7.633016e+00 2.381288e+01  1 2.387324e-01 5.235988e-01 2.387324e-01 0 
190 1  -7.321469e-01 7.607133e+00 2.381278e+01  1 2.387324e-01 5.235988e-01 2.387324e-01 0 
191 1  -1.689242e+00 7.442341e+00 2.381264e+01  1 2.387324e-01 5.235988e-01 2.387324e-01 0 
192 1  -2.628466e+00 7.173410e+00 2.380807e+01  1 2.387324e-01 5.235988e-01 2.387324e-01 0 
193 1  -3.525756e+00 6.774215e+00 2.381442e+01  1 2.387324e-01 5.235988e-01 2.387324e-01 0 
194 1  -4.362694e+00 6.266669e+00 2.381233e+01  1 2.387324e-01 5.235988e-01 2.387324e-01 0 
195 1  -5.127306e+00 5.652132e+00 2.381552e+01  1 2.387324e-01 5.235988e-01 2.387324e-01 0 
196 1  -5.809168e+00 4.948315e+00 2.381281e+01  1 2.387324e-01 5.235988e-01 2.387324e-01 0 
197 1  -6.392167e+00 4.169874e+00 2.380869e+01  1 2.387324e-01 5.235988e-01 2.387324e-01 0 
198 1  -6.872123e+00 3.312199e+00 2.380666e+01  1 2.387324e-01 5.235988e-01 2.387324e-01 0 
199 1  -7.236109e+00 2.412384e+00 2.380657e+01  1 2.387324e-01 5.235988e-01 2.387324e-01 0 
200 1  -7.484440e+00 1.461283e+00 2.381338e+01  1 2.387324e-01 5.235988e-01 2.387324e-01 0 
201 1  -7.611024e+00 4.916095e-01 2.380863e+01  1 2.387324e-01 5.235988e-01 2.387324e-01 0 
202 1  -7.613681e+00 -4.794717e-01 2.380765e+01  1 2.387324e-01 5.235988e-01 2.387324e-01 0 
203 1  -7.484272e+00 -1.457324e+00 2.380664e+01  1 2.387324e-01 5.235988e-01 2.387324e-01 0 
204 1  -7.238957e+00 -2.397284e+00 2.381429e+01  1 2.387324e-01 5.235988e-01 2.387324e-01 0 
205 1  -6.873723e+00 -3.311499e+00 2.381460e+01  1 2.387324e-01 5.235988e-01 2.387324e-01 0 
206 1  -6.387862e+00 -4.161058e+00 2.380849e+01  1 2.387324e-01 5.235988e-01 2.387324e-01 0 
207 1  -5.803472e+00 -4.938354e+00 2.381368e+01  1 2.387324e-01 5.235988e-01 2.387324e-01 0 
208 1  -5.126272e+00 -5.647983e+00 2.380902e+01  1 2.387324e-01 5.235988e-01 2.387324e-01 0 
209 1  -4.360828e+00 -6.259279e+00 2.380958e+01  1 2.387324e-01 5.235988e-01 2.387324e-01 0 
210 1  -3.524754e+00 -6.761472e+00 2.380949e+01  1 2.387324e-01 5.235988e-01 2.387324e-01 0 
211 1  -2.634146e+00 -7.157017e+00 2.380686e+01  1 2.387324e-01 5.235988e-01 2.387324e-01 0 
212 1  -1.695523e+00 -7.433027e+00 2.380697e+01  1 2.387324e-01 5.235988e-01 2.387324e-01 0 
213 1  -7.282489e-01 -7.588905e+00 2.381115e+01  1 2.387324e-01 5.235988e-01 2.387324e-01 0 
214 1  2.469594e-01 -7.628696e+00 2.380996e+01  1 2.387324e-01 5.235988e-01 2.387324e-01 0 
215 1  1.226693e+00 -7.527711e+00 2.381036e+01  1 2.387324e-01 5.235988e-01 2.387324e-01 0 
216 1  2.173789e+00 -7.309066e+00 2.381239e+01  1 2.387324e-01 5.235988e-01 2.387324e-01 0 
217 1  3.092031e+00 -6.975031e+00 2.381283e+01  1 2.387324e-01 5.235988e-01 2.387324e-01 0 
218 1  3.958675e+00 -6.526682e+00 2.381255e+01  1 2.387324e-01 5.235988e-01 2.387324e-01 0 
219 1  4.761468e+00 -5.966930e+00 2.380960e+01  1 2.387324e-01 5.235988e-01 2.387324e-01 0 
220 1  5.487625e+00 -5.308247e+00 2.381364e+01  1 2.387324e-01 5.235988e-01 2.387324e-01 0 
221 1  6.120421e+00 -4.557684e+00 2.381315e+01  1 2.387324e-01 5.235988e-01 2.387324e-01 0 
222 1  6.660140e+00 -3.741648e+00 2.381206e+01  1 2.387324e-01 5.235988e-01 2.387324e-01 0 
223 1  7.079597e+00 -2.856199e+00 2.381502e+01  1 2.387324e-01 5.235988e-01 2.387324e-01 0 
224 1  7.385355e+00 -1.934704e+00 2.381577e+01  1 2.387324e-01 5.235988e-01 2.387324e-01 0 
225 1  7.579531e+00 -9.687764e-01 2.381480e+01  1 2.387324e-01 5.235988e-01 2.387324e-01 0 
226 1  8.560301e+00 1.498917e-03 2.349552e+01  1 2.387324e-01 5.235988e-01 2.387324e-01 0 
227 1  8.499158e+00 9.830683e-01 2.349895e+01  1 2.387324e-01 5.235988e-01 2.387324e-01 0 
228 1  8.329404e+00 1.942115e+00 2.350137e+01  1 2.387324e-01 5.235988e-01 2.387324e-01 0 
229 1  8.055824e+00 2.883003e+00 2.349917e+01  1 2.387324e-01 5.235988e-01 2.387324e-01 0 
230 1  7.677296e+00 3.773418e+00 2.350231e+01  1 2.387324e-01 5.235988e-01 2.387324e-01 0 
231 2  7.199090e+00 4.632090e+00 2.349731e+01  1 2.387324e-01 5.235988e-01 2.387324e-01 0 
232 1  6.621923e+00 5.416169e+00 2.349504e+01  1 2.387324e-01 5.235988e-01 2.387324e-01 0 
233 1  5.965196e+00 6.132507e+00 2.349925e+01  1 2.387324e-01 5.235988e-01 2.387324e-01 0 
234 1  5.228459e+00 6.780822e+00 2.350227e+01  1 2.387324e-01 5.235988e-01 2.387324e-01 0 
235 1  4.417676e+00 7.328710e+00 2.349442e+01  1 2.387324e-01 5.235988e-01 2.387324e-01 0 
236 1  3.553182e+00 7.782018e+00 2.349647e+01  1 2.387324e-01 5.235988e-01 2.387324e-01 0 
237 1  2.645218e+00 8.137977e+00 2.349394e+01  1 2.387324e-01 5.235988e-01 2.387324e-01 0 
238 1  1.701236e+00 8.383670e+00 2.349481e+01  1 2.387324e-01 5.235988e-01 2.387324e-01 0 
239 1  7.359511e-01 8.521314e+00 2.349625e+01  1 2.387324e-01 5.235988e-01 2.387324e-01 0 
240 2  -2.390900e-01 8.547395e+00 2.349572e+01  1 2.387324e-01 5.235988e-01 2.387324e-01 0 
241 1  -1.216008e+00 8.465006e+00 2.350160e+01  1 2.387324e-01 5.235988e-01 2.387324e-01 0 
242 1  -2.171070e+00 8.273326e+00 2.349684e+01  1 2.387324e-01 5.235988e-01 2.387324e-01 0 
243 1  -3.094178e+00 7.976675e+00 2.349758e+01  1 2.387324e-01 5.235988e-01 2.387324e-01 0 
244 1  -3.989948e+00 7.566758e+00 2.349733e+01  1 2.387324e-01 5.235988e-01 2.387324e-01 0 
245 1  -4.816985e+00 7.064578e+00 2.350042e+01  1 2.387324e-01 5.235988e-01 2.387324e-01 0 
246 1  -5.592086e+00 6.465918e+00 2.350036e+01  1 2.387324e-01 5.235988e-01 2.387324e-01 0 
247 1  -6.294622e+00 5.790008e+00 2.349349e+01  1 2.387324e-01 5.235988e-01 2.387324e-01 0 
248 1  -6.911717e+00 5.033523e+00 2.349850e+01  1 2.387324e-01 5.235988e-01 2.387324e-01 0 
249 2  -7.442945e+00 4.205820e+00 2.350004e+01  1 2.387324e-01 5.235988e-01 2.387324e-01 0 
250 1  -7.871483e+00 3.329382e+00 2.349516e+01  1 2.387324e-01 5.235988e-01 2.387324e-01 0 
251 1  -8.194517e+00 2.415558e+00 2.349501e+01  1 2.387324e-01 5.235988e-01 2.387324e-01 0 
252 1  -8.419803e+00 1.461827e+00 2.349698e+01  1 2.387324e-01 5.235988e-01 2.387324e-01 0 
253 1  -8.531347e+00 4.892160e-01 2.349603e+01  1 2.387324e-01 5.235988e-01 2.387324e-01 0 
254 1  -8.534243e+00 -4.819000e-01 2.349711e+01  1 2.387324e-01 5.235988e-01 2.387324e-01 0 
255 1  -8.420383e+00 -1.451835e+00 2.349670e+01  1 2.387324e-01 5.235988e-01 2.387324e-01 0 
256 1  -8.197908e+00 -2.399839e+00 2.349487e+01  1 2.387324e-01 5.235988e-01 2.387324e-01 0 
257 1  -7.869280e+00 -3.322394e+00 2.349373e+01  1 2.387324e-01 5.235988e-01 2.387324e-01 0 
258 2  -7.441362e+00 -4.199711e+00 2.349498e+01  1 2.387324e-01 5.235988e-01 2.387324e-01 0 
259 1  -6.913828e+00 -5.020092e+00 2.349580e+01  1 2.387324e-01 5.235988e-01 2.387324e-01 0 
260 1  -6.289628e+00 -5.771815e+00 2.349484e+01  1 2.387324e-01 5.235988e-01 2.387324e-01 0 
261 1  -5.599012e+00 -6.456854e+00 2.349249e+01  1 2.387324e-01 5.235988e-01 2.387324e-01 0 
262 1  -4.817422e+00 -7.054713e+00 2.349682e+01  1 2.387324e-01 5.235988e-01 2.387324e-01 0 
263 1  -3.981108e+00 -7.552518e+00 2.350136e+01  1 2.387324e-01 5.235988e-01 2.387324e-01 0 
264 1  -3.094227e+00 -7.957987e+00 2.349889e+01  1 2.387324e-01 5.235988e-01 2.387324e-01 0 
265 1  -2.172708e+00 -8.260631e+00 2.349375e+01  1 2.387324e-01 5.235988e-01 2.387324e-01 0 
266 1  -1.214245e+00 -8.456056e+00 2.349490e+01  1 2.387324e-01 5.235988e-01 2.387324e-01 0 
267 2  -2.408150e-01 -8.540369e+00 2.350023e+01  1 2.387324e-01 5.235988e-01 2.387324e-01 0 
268 1  7.385067e-01 -8.511804e+00 2.349959e+01  1 2.387324e-01 5.235988e-01 2.387324e-01 0 
269 1  1.699414e+00 -8.375840e+00 2.350055e+01  1 2.387324e-01 5.235988e-01 2.387324e-01 0 
270 1  2.649463e+00 -8.128016e+00 2.350168e+01  1 2.387324e-01 5.235988e-01 2.387324e-01 0 
271 1  3.553075e+00 -7.775633e+00 2.349423e+01  1 2.387324e-01 5.235988e-01 2.387324e-01 0 
272 1  4.421996e+00 -7.313399e+00 2.349758e+01  1 2.387324e-01 5.235988e-01 2.387324e-01 0 
273 1  5.226289e+00 -6.761742e+00 2.349512e+01  1 2.387324e-01 5.235988e-01 2.387324e-01 0 
274 1  5.966958e+00 -6.122349e+00 2.349640e+01  1 2.387324e-01 5.235988e-01 2.387324e-01 0 
275 1  6.626451e+00 -5.411511e+00 2.349471e+01  1 2.387324e-01 5.235988e-01 2.387324e-01 0 
276 2  7.202179e+00 -4.622171e+00 2.349589e+01  1 2.387324e-01 5.235988e-01 2.387324e-01 0 
277 1  7.682118e+00 -3.771025e+00 2.349396e+01  1 2.387324e-01 5.235988e-01 2.387324e-01 0 
278 1  8.056585e+00 -2.868117e+00 2.349234e+01  1 2.387324e-01 5.235988e-01 2.387324e-01 0 
279 1  8.335280e+00 -1.935964e+00 2.349638e+01  1 2.387324e-01 5.235988e-01 2.387324e-01 0 
280 1  8.496747e+00 -9.745825e-01 2.349511e+01  1 2.387324e-01 5.235988e-01 2.387324e-01 0 
281 2  9.455302e+00 9.168003e-04 2.314487e+01  1 2.387324e-01 5.235988e-01 2.387324e-01 0 
282 1  9.412325e+00 9.782465e-01 2.314896e+01  1 2.387324e-01 5.235988e-01 2.387324e-01 0 
283 1  9.260077e+00 1.934600e+00 2.315031e+01  1 2.387324e-01 5.235988e-01 2.387324e-01 0 
284 1  9.011963e+00 2.881986e+00 2.315031e+01  1 2.387324e-01 5.235988e-01 2.387324e-01 0 
285 1  8.672820e+00 3.792048e+00 2.314819e+01  1 2.387324e-01 5.235988e-01 2.387324e-01 0 
286 1  8.234643e+00 4.657779e+00 2.314636e+01  1 2.387324e-01 5.235988e-01 2.387324e-01 0 
287 1  7.712267e+00 5.480840e+00 2.314765e+01  1 2.387324e-01 5.235988e-01 2.387324e-01 0 
288 1  7.110544e+00 6.245248e+00 2.314607e+01  1 2.387324e-01 5.235988e-01 2.387324e-01 0 
289 1  6.430582e+00 6.940151e+00 2.314993e+01  1 2.387324e-01 5.235988e-01 2.387324e-01 0 
290 1  5.680791e+00 7.569871e+00 2.315235e+01  1 2.387324e-01 5.235988e-01 2.387324e-01 0 
291 2  4.869193e+00 8.110364e+00 2.314602e+01  1 2.387324e-01 5.235988e-01 2.387324e-01 0 
292 1  4.010508e+00 8.563588e+00 2.314786e+01  1 2.387324e-01 5.235988e-01 2.387324e-01 0 
293 1  3.115232e+00 8.936959e+00 2.314701e+01  1 2.387324e-01 5.235988e-01 2.387324e-01 0 
294 1  2.171984e+00 9.211020e+00 2.314629e+01  1 2.387324e-01 5.235988e-01 2.387324e-01 0 
295 1  1.218905e+00 9.378133e+00 2.314710e+01  1 2.387324e-01 5.235988e-01 2.387324e-01 0 
296 1  2.451257e-01 9.459970e+00 2.315188e+01  1 2.387324e-01 5.235988e-01 2.387324e-01 0 
297 1  -7.199069e-01 9.429326e+00 2.315263e+01  1 2.387324e-01 5.235988e-01 2.387324e-01 0 
298 1  -1.687972e+00 9.302050e+00 2.314314e+01  1 2.387324e-01 5.235988e-01 2.387324e-01 0 
299 1  -2.637531e+00 9.083521e+00 2.314911e+01  1 2.387324e-01 5.235988e-01 2.387324e-01 0 
300 1  -3.557250e+00 8.767738e+00 2.315096e+01  1 2.387324e-01 5.235988e-01 2.387324e-01 0 
301 2  -4.443032e+00 8.353418e+00 2.314948e+01  1 2.387324e-01 5.235988e-01 2.387324e-01 0 
302 1  -5.271373e+00 7.848641e+00 2.314427e+01  1 2.387324e-01 5.235988e-01 2.387324e-01 0 
303 1  -6.056382e+00 7.267485e+00 2.315020e+01  1 2.387324e-01 5.235988e-01 2.387324e-01 0 
304 1  -6.770502e+00 6.603873e+00 2.314408e+01  1 2.387324e-01 5.235988e-01 2.387324e-01 0 
305 1  -7.408633e+00 5.872272e+00 2.314895e+01  1 2.387324e-01 5.235988e-01 2.387324e-01 0 
306 1  -7.976928e+00 5.083884e+00 2.315157e+01  1 2.387324e-01 5.235988e-01 2.387324e-01 0 
307 1  -8.449191e+00 4.233058e+00 2.314541e+01  1 2.387324e-01 5.235988e-01 2.387324e-01 0 
308 1  -8.839024e+00 3.343106e+00 2.314506e+01  1 2.387324e-01 5.235988e-01 2.387324e-01 0 
309 1  -9.136019e+00 2.415063e+00 2.314348e+01  1 2.387324e-01 5.235988e-01 2.387324e-01 0 
310 1  -9.340869e+00 1.456457e+00 2.315137e+01  1 2.387324e-01 5.235988e-01 2.387324e-01 0 
311 2  -9.435864e+00 4.936606e-01 2.314338e+01  1 2.387324e-01 5.235988e-01 2.387324e-01 0 
312 1  -9.437274e+00 -4.827950e-01 2.314677e+01  1 2.387324e-01 5.235988e-01 2.387324e-01 0 
313 1  -9.332638e+00 -1.453757e+00 2.314485e+01  1 2.387324e-01 5.235988e-01 2.387324e-01 0 
314 1  -9.136754e+00 -2.401505e+00 2.314814e+01  1 2.387324e-01 5.235988e-01 2.387324e-01 0 
315 1  -8.839196e+00 -3.330295e+00 2.314806e+01  1 2.387324e-01 5.235988e-01 2.387324e-01 0 
316 1  -8.452834e+00 -4.226631e+00 2.315175e+01  1 2.387324e-01 5.235988e-01 2.387324e-01 0 
317 1  -7.973571e+00 -5.069225e+00 2.314881e+01  1 2.387324e-01 5.235988e-01 2.387324e-01 0 
318 1  -7.405597e+00 -5.864715e+00 2.314481e+01  1 2.387324e-01 5.235988e-01 2.387324e-01 0 
319 1  -6.770382e+00 -6.590511e+00 2.315218e+01  1 2.387324e-01 5.235988e-01 2.387324e-01 0 
320 1  -6.055475e+00 -7.260217e+00 2.314974e+01  1 2.387324e-01 5.235988e-01 2.387324e-01 0 
321 1  -5.276459e+00 -7.842567e+00 2.314813e+01  1 2.387324e-01 5.235988e-01 2.387324e-01 0 
322 2  -4.439719e+00 -8.336919e+00 2.315132e+01  1 2.387324e-01 5.235988e-01 2.387324e-01 0 
323 1  -3.553647e+00 -8.756209e+00 2.314598e+01  1 2.387324e-01 5.235988e-01 2.387324e-01 0 
324 1  -2.634502e+00 -9.075037e+00 2.315191e+01  1 2.387324e-01 5.235988e-01 2.387324e-01 0 
325 1  -1.694494e+00 -9.298367e+00 2.314841e+01  1 2.387324e-01 5.235988e-01 2.387324e-01 0 