LAMMPS (2 Jun 2020)
OMP_NUM_THREADS environment is not set. Defaulting to 1 thread. (src/comm.cpp:95)
  using 1 OpenMP thread(s) per MPI task
##############################################################################################################################
# in.Plasma_H2O_Test_V9.2 - This is an input file for a membrne just kinda stiting there (hopefully looking pretty ; and STABLE )

# By: John Quinn
#
# Date: 8/5/2020
#
###############################################################################################################################

units				lj

atom_style			molecular

dimension			3

boundary 			p p p

read_data			Plasma_H2O_Test_V9.18.data
  orthogonal box = (0.0 0.0 0.0) to (100.0 100.0 100.0)
  1 by 1 by 1 MPI processor grid
  reading atoms ...
  42287 atoms
  scanning bonds ...
  15 = max bonds/atom
  reading bonds ...
  8062 bonds
  24 = max # of 1-2 neighbors
  502 = max # of 1-3 neighbors
  10491 = max # of 1-4 neighbors
  139 = max # of special neighbors
  special bonds CPU = 0.0502 secs
  read_data CPU = 0.090 secs

group				Center type 1
930 atoms in group Center

neighbor			0.3 bin
neigh_modify		delay 0 every 1 check yes

mass				* 1.0

bond_style			harmonic
bond_coeff			1 8 1.2

pair_style 			lj/cut 2.5
pair_coeff 			1 1 1 1
pair_coeff 			1 2 1 1
pair_coeff 			1 3 1 1

timestep			0.001

thermo				1000

dump 				1 all atom 50 dump.Plasma_H2O_Test_V9.2

fix 				1 all nve

run					100000
ERROR: All pair coeffs are not set (src/pair.cpp:241)
Last command: run					100000
