Plasma_H2O_Test_V9.18.data

42287 atoms
3 atom types
8062 bonds
1 bond types
0.0 100 xlo xhi
0.0 100 ylo yhi
0.0 100 zlo zhi

Atoms

1 1 1 40 50 50 
2 1 1 41 46 49 
3 1 1 41 46 50 
4 1 1 41 46 51 
5 1 1 41 47 47 
6 1 1 41 47 48 
7 1 1 41 47 49 
8 1 1 41 47 50 
9 1 1 41 47 51 
10 1 1 41 47 52 
11 1 1 41 47 53 
12 1 1 41 48 47 
13 1 1 41 48 48 
14 1 1 41 48 49 
15 1 1 41 48 50 
16 1 1 41 48 51 
17 1 1 41 48 52 
18 1 1 41 48 53 
19 1 1 41 49 46 
20 1 1 41 49 47 
21 1 1 41 49 48 
22 1 1 41 49 52 
23 1 1 41 49 53 
24 1 1 41 49 54 
25 1 1 41 50 46 
26 1 1 41 50 47 
27 1 1 41 50 48 
28 1 1 41 50 52 
29 1 1 41 50 53 
30 1 1 41 50 54 
31 1 1 41 51 46 
32 1 1 41 51 47 
33 1 1 41 51 48 
34 1 1 41 51 52 
35 1 1 41 51 53 
36 1 1 41 51 54 
37 1 1 41 52 47 
38 1 1 41 52 48 
39 1 1 41 52 49 
40 1 1 41 52 50 
41 1 1 41 52 51 
42 1 1 41 52 52 
43 1 1 41 52 53 
44 1 1 41 53 47 
45 1 1 41 53 48 
46 1 1 41 53 49 
47 1 1 41 53 50 
48 1 1 41 53 51 
49 1 1 41 53 52 
50 1 1 41 53 53 
51 1 1 41 54 49 
52 1 1 41 54 50 
53 1 1 41 54 51 
54 1 1 42 44 50 
55 1 1 42 45 47 
56 1 1 42 45 48 
57 1 1 42 45 49 
58 1 1 42 45 50 
59 1 1 42 45 51 
60 1 1 42 45 52 
61 1 1 42 45 53 
62 1 1 42 46 46 
63 1 1 42 46 47 
64 1 1 42 46 53 
65 1 1 42 46 54 
66 1 1 42 47 45 
67 1 1 42 47 46 
68 1 1 42 47 54 
69 1 1 42 47 55 
70 1 1 42 48 45 
71 1 1 42 48 55 
72 1 1 42 49 45 
73 1 1 42 49 55 
74 1 1 42 50 44 
75 1 1 42 50 45 
76 1 1 42 50 55 
77 1 1 42 50 56 
78 1 1 42 51 45 
79 1 1 42 51 55 
80 1 1 42 52 45 
81 1 1 42 52 55 
82 1 1 42 53 45 
83 1 1 42 53 46 
84 1 1 42 53 54 
85 1 1 42 53 55 
86 1 1 42 54 46 
87 1 1 42 54 47 
88 1 1 42 54 53 
89 1 1 42 54 54 
90 1 1 42 55 47 
91 1 1 42 55 48 
92 1 1 42 55 49 
93 1 1 42 55 50 
94 1 1 42 55 51 
95 1 1 42 55 52 
96 1 1 42 55 53 
97 1 1 42 56 50 
98 1 1 43 43 49 
99 1 1 43 43 50 
100 1 1 43 43 51 
101 1 1 43 44 47 
102 1 1 43 44 48 
103 1 1 43 44 49 
104 1 1 43 44 50 
105 1 1 43 44 51 
106 1 1 43 44 52 
107 1 1 43 44 53 
108 1 1 43 45 45 
109 1 1 43 45 46 
110 1 1 43 45 54 
111 1 1 43 45 55 
112 1 1 43 46 45 
113 1 1 43 46 55 
114 1 1 43 47 44 
115 1 1 43 47 56 
116 1 1 43 48 44 
117 1 1 43 48 56 
118 1 1 43 49 43 
119 1 1 43 49 44 
120 1 1 43 49 56 
121 1 1 43 49 57 
122 1 1 43 50 43 
123 1 1 43 50 44 
124 1 1 43 50 56 
125 1 1 43 50 57 
126 1 1 43 51 43 
127 1 1 43 51 44 
128 1 1 43 51 56 
129 1 1 43 51 57 
130 1 1 43 52 44 
131 1 1 43 52 56 
132 1 1 43 53 44 
133 1 1 43 53 56 
134 1 1 43 54 45 
135 1 1 43 54 55 
136 1 1 43 55 45 
137 1 1 43 55 46 
138 1 1 43 55 54 
139 1 1 43 55 55 
140 1 1 43 56 47 
141 1 1 43 56 48 
142 1 1 43 56 49 
143 1 1 43 56 50 
144 1 1 43 56 51 
145 1 1 43 56 52 
146 1 1 43 56 53 
147 1 1 43 57 49 
148 1 1 43 57 50 
149 1 1 43 57 51 
150 1 1 44 42 50 
151 1 1 44 43 47 
152 1 1 44 43 48 
153 1 1 44 43 49 
154 1 1 44 43 50 
155 1 1 44 43 51 
156 1 1 44 43 52 
157 1 1 44 43 53 
158 1 1 44 44 45 
159 1 1 44 44 46 
160 1 1 44 44 54 
161 1 1 44 44 55 
162 1 1 44 45 44 
163 1 1 44 45 45 
164 1 1 44 45 55 
165 1 1 44 45 56 
166 1 1 44 46 44 
167 1 1 44 46 56 
168 1 1 44 47 43 
169 1 1 44 47 57 
170 1 1 44 48 43 
171 1 1 44 48 57 
172 1 1 44 49 43 
173 1 1 44 49 57 
174 1 1 44 50 42 
175 1 1 44 50 43 
176 1 1 44 50 57 
177 1 1 44 50 58 
178 1 1 44 51 43 
179 1 1 44 51 57 
180 1 1 44 52 43 
181 1 1 44 52 57 
182 1 1 44 53 43 
183 1 1 44 53 57 
184 1 1 44 54 44 
185 1 1 44 54 56 
186 1 1 44 55 44 
187 1 1 44 55 45 
188 1 1 44 55 55 
189 1 1 44 55 56 
190 1 1 44 56 45 
191 1 1 44 56 46 
192 1 1 44 56 54 
193 1 1 44 56 55 
194 1 1 44 57 47 
195 1 1 44 57 48 
196 1 1 44 57 49 
197 1 1 44 57 50 
198 1 1 44 57 51 
199 1 1 44 57 52 
200 1 1 44 57 53 
201 1 1 44 58 50 
202 1 1 45 42 47 
203 1 1 45 42 48 
204 1 1 45 42 49 
205 1 1 45 42 50 
206 1 1 45 42 51 
207 1 1 45 42 52 
208 1 1 45 42 53 
209 1 1 45 43 45 
210 1 1 45 43 46 
211 1 1 45 43 54 
212 1 1 45 43 55 
213 1 1 45 44 44 
214 1 1 45 44 45 
215 1 1 45 44 55 
216 1 1 45 44 56 
217 1 1 45 45 43 
218 1 1 45 45 44 
219 1 1 45 45 56 
220 1 1 45 45 57 
221 1 1 45 46 43 
222 1 1 45 46 57 
223 1 1 45 47 42 
224 1 1 45 47 58 
225 1 1 45 48 42 
226 1 1 45 48 58 
227 1 1 45 49 42 
228 1 1 45 49 58 
229 1 1 45 50 42 
230 1 1 45 50 58 
231 1 1 45 51 42 
232 1 1 45 51 58 
233 1 1 45 52 42 
234 1 1 45 52 58 
235 1 1 45 53 42 
236 1 1 45 53 58 
237 1 1 45 54 43 
238 1 1 45 54 57 
239 1 1 45 55 43 
240 1 1 45 55 44 
241 1 1 45 55 56 
242 1 1 45 55 57 
243 1 1 45 56 44 
244 1 1 45 56 45 
245 1 1 45 56 55 
246 1 1 45 56 56 
247 1 1 45 57 45 
248 1 1 45 57 46 
249 1 1 45 57 54 
250 1 1 45 57 55 
251 1 1 45 58 47 
252 1 1 45 58 48 
253 1 1 45 58 49 
254 1 1 45 58 50 
255 1 1 45 58 51 
256 1 1 45 58 52 
257 1 1 45 58 53 
258 1 1 46 41 49 
259 1 1 46 41 50 
260 1 1 46 41 51 
261 1 1 46 42 46 
262 1 1 46 42 47 
263 1 1 46 42 53 
264 1 1 46 42 54 
265 1 1 46 43 45 
266 1 1 46 43 55 
267 1 1 46 44 44 
268 1 1 46 44 56 
269 1 1 46 45 43 
270 1 1 46 45 57 
271 1 1 46 46 42 
272 1 1 46 46 58 
273 1 1 46 47 42 
274 1 1 46 47 58 
275 1 1 46 49 41 
276 1 1 46 49 59 
277 1 1 46 50 41 
278 1 1 46 50 59 
279 1 1 46 51 41 
280 1 1 46 51 59 
281 1 1 46 53 42 
282 1 1 46 53 58 
283 1 1 46 54 42 
284 1 1 46 54 58 
285 1 1 46 55 43 
286 1 1 46 55 57 
287 1 1 46 56 44 
288 1 1 46 56 56 
289 1 1 46 57 45 
290 1 1 46 57 55 
291 1 1 46 58 46 
292 1 1 46 58 47 
293 1 1 46 58 53 
294 1 1 46 58 54 
295 1 1 46 59 49 
296 1 1 46 59 50 
297 1 1 46 59 51 
298 1 1 47 41 47 
299 1 1 47 41 48 
300 1 1 47 41 49 
301 1 1 47 41 50 
302 1 1 47 41 51 
303 1 1 47 41 52 
304 1 1 47 41 53 
305 1 1 47 42 45 
306 1 1 47 42 46 
307 1 1 47 42 54 
308 1 1 47 42 55 
309 1 1 47 43 44 
310 1 1 47 43 56 
311 1 1 47 44 43 
312 1 1 47 44 57 
313 1 1 47 45 42 
314 1 1 47 45 58 
315 1 1 47 46 42 
316 1 1 47 46 58 
317 1 1 47 47 41 
318 1 1 47 47 59 
319 1 1 47 48 41 
320 1 1 47 48 59 
321 1 1 47 49 41 
322 1 1 47 49 59 
323 1 1 47 50 41 
324 1 1 47 50 59 
325 1 1 47 51 41 
326 1 1 47 51 59 
327 1 1 47 52 41 
328 1 1 47 52 59 
329 1 1 47 53 41 
330 1 1 47 53 59 
331 1 1 47 54 42 
332 1 1 47 54 58 
333 1 1 47 55 42 
334 1 1 47 55 58 
335 1 1 47 56 43 
336 1 1 47 56 57 
337 1 1 47 57 44 
338 1 1 47 57 56 
339 1 1 47 58 45 
340 1 1 47 58 46 
341 1 1 47 58 54 
342 1 1 47 58 55 
343 1 1 47 59 47 
344 1 1 47 59 48 
345 1 1 47 59 49 
346 1 1 47 59 50 
347 1 1 47 59 51 
348 1 1 47 59 52 
349 1 1 47 59 53 
350 1 1 48 41 47 
351 1 1 48 41 48 
352 1 1 48 41 49 
353 1 1 48 41 50 
354 1 1 48 41 51 
355 1 1 48 41 52 
356 1 1 48 41 53 
357 1 1 48 42 45 
358 1 1 48 42 55 
359 1 1 48 43 44 
360 1 1 48 43 56 
361 1 1 48 44 43 
362 1 1 48 44 57 
363 1 1 48 45 42 
364 1 1 48 45 58 
365 1 1 48 47 41 
366 1 1 48 47 59 
367 1 1 48 48 41 
368 1 1 48 48 59 
369 1 1 48 49 41 
370 1 1 48 49 59 
371 1 1 48 50 41 
372 1 1 48 50 59 
373 1 1 48 51 41 
374 1 1 48 51 59 
375 1 1 48 52 41 
376 1 1 48 52 59 
377 1 1 48 53 41 
378 1 1 48 53 59 
379 1 1 48 55 42 
380 1 1 48 55 58 
381 1 1 48 56 43 
382 1 1 48 56 57 
383 1 1 48 57 44 
384 1 1 48 57 56 
385 1 1 48 58 45 
386 1 1 48 58 55 
387 1 1 48 59 47 
388 1 1 48 59 48 
389 1 1 48 59 49 
390 1 1 48 59 50 
391 1 1 48 59 51 
392 1 1 48 59 52 
393 1 1 48 59 53 
394 1 1 49 41 46 
395 1 1 49 41 47 
396 1 1 49 41 48 
397 1 1 49 41 52 
398 1 1 49 41 53 
399 1 1 49 41 54 
400 1 1 49 42 45 
401 1 1 49 42 55 
402 1 1 49 43 43 
403 1 1 49 43 44 
404 1 1 49 43 56 
405 1 1 49 43 57 
406 1 1 49 44 43 
407 1 1 49 44 57 
408 1 1 49 45 42 
409 1 1 49 45 58 
410 1 1 49 46 41 
411 1 1 49 46 59 
412 1 1 49 47 41 
413 1 1 49 47 59 
414 1 1 49 48 41 
415 1 1 49 48 59 
416 1 1 49 52 41 
417 1 1 49 52 59 
418 1 1 49 53 41 
419 1 1 49 53 59 
420 1 1 49 54 41 
421 1 1 49 54 59 
422 1 1 49 55 42 
423 1 1 49 55 58 
424 1 1 49 56 43 
425 1 1 49 56 57 
426 1 1 49 57 43 
427 1 1 49 57 44 
428 1 1 49 57 56 
429 1 1 49 57 57 
430 1 1 49 58 45 
431 1 1 49 58 55 
432 1 1 49 59 46 
433 1 1 49 59 47 
434 1 1 49 59 48 
435 1 1 49 59 52 
436 1 1 49 59 53 
437 1 1 49 59 54 
438 1 1 50 40 50 
439 1 1 50 41 46 
440 1 1 50 41 47 
441 1 1 50 41 48 
442 1 1 50 41 52 
443 1 1 50 41 53 
444 1 1 50 41 54 
445 1 1 50 42 44 
446 1 1 50 42 45 
447 1 1 50 42 55 
448 1 1 50 42 56 
449 1 1 50 43 43 
450 1 1 50 43 44 
451 1 1 50 43 56 
452 1 1 50 43 57 
453 1 1 50 44 42 
454 1 1 50 44 43 
455 1 1 50 44 57 
456 1 1 50 44 58 
457 1 1 50 45 42 
458 1 1 50 45 58 
459 1 1 50 46 41 
460 1 1 50 46 59 
461 1 1 50 47 41 
462 1 1 50 47 59 
463 1 1 50 48 41 
464 1 1 50 48 59 
465 1 1 50 50 40 
466 1 1 50 50 60 
467 1 1 50 52 41 
468 1 1 50 52 59 
469 1 1 50 53 41 
470 1 1 50 53 59 
471 1 1 50 54 41 
472 1 1 50 54 59 
473 1 1 50 55 42 
474 1 1 50 55 58 
475 1 1 50 56 42 
476 1 1 50 56 43 
477 1 1 50 56 57 
478 1 1 50 56 58 
479 1 1 50 57 43 
480 1 1 50 57 44 
481 1 1 50 57 56 
482 1 1 50 57 57 
483 1 1 50 58 44 
484 1 1 50 58 45 
485 1 1 50 58 55 
486 1 1 50 58 56 
487 1 1 50 59 46 
488 1 1 50 59 47 
489 1 1 50 59 48 
490 1 1 50 59 52 
491 1 1 50 59 53 
492 1 1 50 59 54 
493 1 1 50 60 50 
494 1 1 51 41 46 
495 1 1 51 41 47 
496 1 1 51 41 48 
497 1 1 51 41 52 
498 1 1 51 41 53 
499 1 1 51 41 54 
500 1 1 51 42 45 
501 1 1 51 42 55 
502 1 1 51 43 43 
503 1 1 51 43 44 
504 1 1 51 43 56 
505 1 1 51 43 57 
506 1 1 51 44 43 
507 1 1 51 44 57 
508 1 1 51 45 42 
509 1 1 51 45 58 
510 1 1 51 46 41 
511 1 1 51 46 59 
512 1 1 51 47 41 
513 1 1 51 47 59 
514 1 1 51 48 41 
515 1 1 51 48 59 
516 1 1 51 52 41 
517 1 1 51 52 59 
518 1 1 51 53 41 
519 1 1 51 53 59 
520 1 1 51 54 41 
521 1 1 51 54 59 
522 1 1 51 55 42 
523 1 1 51 55 58 
524 1 1 51 56 43 
525 1 1 51 56 57 
526 1 1 51 57 43 
527 1 1 51 57 44 
528 1 1 51 57 56 
529 1 1 51 57 57 
530 1 1 51 58 45 
531 1 1 51 58 55 
532 1 1 51 59 46 
533 1 1 51 59 47 
534 1 1 51 59 48 
535 1 1 51 59 52 
536 1 1 51 59 53 
537 1 1 51 59 54 
538 1 1 52 41 47 
539 1 1 52 41 48 
540 1 1 52 41 49 
541 1 1 52 41 50 
542 1 1 52 41 51 
543 1 1 52 41 52 
544 1 1 52 41 53 
545 1 1 52 42 45 
546 1 1 52 42 55 
547 1 1 52 43 44 
548 1 1 52 43 56 
549 1 1 52 44 43 
550 1 1 52 44 57 
551 1 1 52 45 42 
552 1 1 52 45 58 
553 1 1 52 47 41 
554 1 1 52 47 59 
555 1 1 52 48 41 
556 1 1 52 48 59 
557 1 1 52 49 41 
558 1 1 52 49 59 
559 1 1 52 50 41 
560 1 1 52 50 59 
561 1 1 52 51 41 
562 1 1 52 51 59 
563 1 1 52 52 41 
564 1 1 52 52 59 
565 1 1 52 53 41 
566 1 1 52 53 59 
567 1 1 52 55 42 
568 1 1 52 55 58 
569 1 1 52 56 43 
570 1 1 52 56 57 
571 1 1 52 57 44 
572 1 1 52 57 56 
573 1 1 52 58 45 
574 1 1 52 58 55 
575 1 1 52 59 47 
576 1 1 52 59 48 
577 1 1 52 59 49 
578 1 1 52 59 50 
579 1 1 52 59 51 
580 1 1 52 59 52 
581 1 1 52 59 53 
582 1 1 53 41 47 
583 1 1 53 41 48 
584 1 1 53 41 49 
585 1 1 53 41 50 
586 1 1 53 41 51 
587 1 1 53 41 52 
588 1 1 53 41 53 
589 1 1 53 42 45 
590 1 1 53 42 46 
591 1 1 53 42 54 
592 1 1 53 42 55 
593 1 1 53 43 44 
594 1 1 53 43 56 
595 1 1 53 44 43 
596 1 1 53 44 57 
597 1 1 53 45 42 
598 1 1 53 45 58 
599 1 1 53 46 42 
600 1 1 53 46 58 
601 1 1 53 47 41 
602 1 1 53 47 59 
603 1 1 53 48 41 
604 1 1 53 48 59 
605 1 1 53 49 41 
606 1 1 53 49 59 
607 1 1 53 50 41 
608 1 1 53 50 59 
609 1 1 53 51 41 
610 1 1 53 51 59 
611 1 1 53 52 41 
612 1 1 53 52 59 
613 1 1 53 53 41 
614 1 1 53 53 59 
615 1 1 53 54 42 
616 1 1 53 54 58 
617 1 1 53 55 42 
618 1 1 53 55 58 
619 1 1 53 56 43 
620 1 1 53 56 57 
621 1 1 53 57 44 
622 1 1 53 57 56 
623 1 1 53 58 45 
624 1 1 53 58 46 
625 1 1 53 58 54 
626 1 1 53 58 55 
627 1 1 53 59 47 
628 1 1 53 59 48 
629 1 1 53 59 49 
630 1 1 53 59 50 
631 1 1 53 59 51 
632 1 1 53 59 52 
633 1 1 53 59 53 
634 1 1 54 41 49 
635 1 1 54 41 50 
636 1 1 54 41 51 
637 1 1 54 42 46 
638 1 1 54 42 47 
639 1 1 54 42 53 
640 1 1 54 42 54 
641 1 1 54 43 45 
642 1 1 54 43 55 
643 1 1 54 44 44 
644 1 1 54 44 56 
645 1 1 54 45 43 
646 1 1 54 45 57 
647 1 1 54 46 42 
648 1 1 54 46 58 
649 1 1 54 47 42 
650 1 1 54 47 58 
651 1 1 54 49 41 
652 1 1 54 49 59 
653 1 1 54 50 41 
654 1 1 54 50 59 
655 1 1 54 51 41 
656 1 1 54 51 59 
657 1 1 54 53 42 
658 1 1 54 53 58 
659 1 1 54 54 42 
660 1 1 54 54 58 
661 1 1 54 55 43 
662 1 1 54 55 57 
663 1 1 54 56 44 
664 1 1 54 56 56 
665 1 1 54 57 45 
666 1 1 54 57 55 
667 1 1 54 58 46 
668 1 1 54 58 47 
669 1 1 54 58 53 
670 1 1 54 58 54 
671 1 1 54 59 49 
672 1 1 54 59 50 
673 1 1 54 59 51 
674 1 1 55 42 47 
675 1 1 55 42 48 
676 1 1 55 42 49 
677 1 1 55 42 50 
678 1 1 55 42 51 
679 1 1 55 42 52 
680 1 1 55 42 53 
681 1 1 55 43 45 
682 1 1 55 43 46 
683 1 1 55 43 54 
684 1 1 55 43 55 
685 1 1 55 44 44 
686 1 1 55 44 45 
687 1 1 55 44 55 
688 1 1 55 44 56 
689 1 1 55 45 43 
690 1 1 55 45 44 
691 1 1 55 45 56 
692 1 1 55 45 57 
693 1 1 55 46 43 
694 1 1 55 46 57 
695 1 1 55 47 42 
696 1 1 55 47 58 
697 1 1 55 48 42 
698 1 1 55 48 58 
699 1 1 55 49 42 
700 1 1 55 49 58 
701 1 1 55 50 42 
702 1 1 55 50 58 
703 1 1 55 51 42 
704 1 1 55 51 58 
705 1 1 55 52 42 
706 1 1 55 52 58 
707 1 1 55 53 42 
708 1 1 55 53 58 
709 1 1 55 54 43 
710 1 1 55 54 57 
711 1 1 55 55 43 
712 1 1 55 55 44 
713 1 1 55 55 56 
714 1 1 55 55 57 
715 1 1 55 56 44 
716 1 1 55 56 45 
717 1 1 55 56 55 
718 1 1 55 56 56 
719 1 1 55 57 45 
720 1 1 55 57 46 
721 1 1 55 57 54 
722 1 1 55 57 55 
723 1 1 55 58 47 
724 1 1 55 58 48 
725 1 1 55 58 49 
726 1 1 55 58 50 
727 1 1 55 58 51 
728 1 1 55 58 52 
729 1 1 55 58 53 
730 1 1 56 42 50 
731 1 1 56 43 47 
732 1 1 56 43 48 
733 1 1 56 43 49 
734 1 1 56 43 50 
735 1 1 56 43 51 
736 1 1 56 43 52 
737 1 1 56 43 53 
738 1 1 56 44 45 
739 1 1 56 44 46 
740 1 1 56 44 54 
741 1 1 56 44 55 
742 1 1 56 45 44 
743 1 1 56 45 45 
744 1 1 56 45 55 
745 1 1 56 45 56 
746 1 1 56 46 44 
747 1 1 56 46 56 
748 1 1 56 47 43 
749 1 1 56 47 57 
750 1 1 56 48 43 
751 1 1 56 48 57 
752 1 1 56 49 43 
753 1 1 56 49 57 
754 1 1 56 50 42 
755 1 1 56 50 43 
756 1 1 56 50 57 
757 1 1 56 50 58 
758 1 1 56 51 43 
759 1 1 56 51 57 
760 1 1 56 52 43 
761 1 1 56 52 57 
762 1 1 56 53 43 
763 1 1 56 53 57 
764 1 1 56 54 44 
765 1 1 56 54 56 
766 1 1 56 55 44 
767 1 1 56 55 45 
768 1 1 56 55 55 
769 1 1 56 55 56 
770 1 1 56 56 45 
771 1 1 56 56 46 
772 1 1 56 56 54 
773 1 1 56 56 55 
774 1 1 56 57 47 
775 1 1 56 57 48 
776 1 1 56 57 49 
777 1 1 56 57 50 
778 1 1 56 57 51 
779 1 1 56 57 52 
780 1 1 56 57 53 
781 1 1 56 58 50 
782 1 1 57 43 49 
783 1 1 57 43 50 
784 1 1 57 43 51 
785 1 1 57 44 47 
786 1 1 57 44 48 
787 1 1 57 44 49 
788 1 1 57 44 50 
789 1 1 57 44 51 
790 1 1 57 44 52 
791 1 1 57 44 53 
792 1 1 57 45 45 
793 1 1 57 45 46 
794 1 1 57 45 54 
795 1 1 57 45 55 
796 1 1 57 46 45 
797 1 1 57 46 55 
798 1 1 57 47 44 
799 1 1 57 47 56 
800 1 1 57 48 44 
801 1 1 57 48 56 
802 1 1 57 49 43 
803 1 1 57 49 44 
804 1 1 57 49 56 
805 1 1 57 49 57 
806 1 1 57 50 43 
807 1 1 57 50 44 
808 1 1 57 50 56 
809 1 1 57 50 57 
810 1 1 57 51 43 
811 1 1 57 51 44 
812 1 1 57 51 56 
813 1 1 57 51 57 
814 1 1 57 52 44 
815 1 1 57 52 56 
816 1 1 57 53 44 
817 1 1 57 53 56 
818 1 1 57 54 45 
819 1 1 57 54 55 
820 1 1 57 55 45 
821 1 1 57 55 46 
822 1 1 57 55 54 
823 1 1 57 55 55 
824 1 1 57 56 47 
825 1 1 57 56 48 
826 1 1 57 56 49 
827 1 1 57 56 50 
828 1 1 57 56 51 
829 1 1 57 56 52 
830 1 1 57 56 53 
831 1 1 57 57 49 
832 1 1 57 57 50 
833 1 1 57 57 51 
834 1 1 58 44 50 
835 1 1 58 45 47 
836 1 1 58 45 48 
837 1 1 58 45 49 
838 1 1 58 45 50 
839 1 1 58 45 51 
840 1 1 58 45 52 
841 1 1 58 45 53 
842 1 1 58 46 46 
843 1 1 58 46 47 
844 1 1 58 46 53 
845 1 1 58 46 54 
846 1 1 58 47 45 
847 1 1 58 47 46 
848 1 1 58 47 54 
849 1 1 58 47 55 
850 1 1 58 48 45 
851 1 1 58 48 55 
852 1 1 58 49 45 
853 1 1 58 49 55 
854 1 1 58 50 44 
855 1 1 58 50 45 
856 1 1 58 50 55 
857 1 1 58 50 56 
858 1 1 58 51 45 
859 1 1 58 51 55 
860 1 1 58 52 45 
861 1 1 58 52 55 
862 1 1 58 53 45 
863 1 1 58 53 46 
864 1 1 58 53 54 
865 1 1 58 53 55 
866 1 1 58 54 46 
867 1 1 58 54 47 
868 1 1 58 54 53 
869 1 1 58 54 54 
870 1 1 58 55 47 
871 1 1 58 55 48 
872 1 1 58 55 49 
873 1 1 58 55 50 
874 1 1 58 55 51 
875 1 1 58 55 52 
876 1 1 58 55 53 
877 1 1 58 56 50 
878 1 1 59 46 49 
879 1 1 59 46 50 
880 1 1 59 46 51 
881 1 1 59 47 47 
882 1 1 59 47 48 
883 1 1 59 47 49 
884 1 1 59 47 50 
885 1 1 59 47 51 
886 1 1 59 47 52 
887 1 1 59 47 53 
888 1 1 59 48 47 
889 1 1 59 48 48 
890 1 1 59 48 49 
891 1 1 59 48 50 
892 1 1 59 48 51 
893 1 1 59 48 52 
894 1 1 59 48 53 
895 1 1 59 49 46 
896 1 1 59 49 47 
897 1 1 59 49 48 
898 1 1 59 49 52 
899 1 1 59 49 53 
900 1 1 59 49 54 
901 1 1 59 50 46 
902 1 1 59 50 47 
903 1 1 59 50 48 
904 1 1 59 50 52 
905 1 1 59 50 53 
906 1 1 59 50 54 
907 1 1 59 51 46 
908 1 1 59 51 47 
909 1 1 59 51 48 
910 1 1 59 51 52 
911 1 1 59 51 53 
912 1 1 59 51 54 
913 1 1 59 52 47 
914 1 1 59 52 48 
915 1 1 59 52 49 
916 1 1 59 52 50 
917 1 1 59 52 51 
918 1 1 59 52 52 
919 1 1 59 52 53 
920 1 1 59 53 47 
921 1 1 59 53 48 
922 1 1 59 53 49 
923 1 1 59 53 50 
924 1 1 59 53 51 
925 1 1 59 53 52 
926 1 1 59 53 53 
927 1 1 59 54 49 
928 1 1 59 54 50 
929 1 1 59 54 51 
930 1 1 60 50 50 
931 3 3 42 48 48 
932 3 3 42 48 50 
933 3 3 42 48 51 
934 3 3 42 49 47 
935 3 3 42 49 48 
936 3 3 42 49 49 
937 3 3 42 49 51 
938 3 3 42 49 53 
939 3 3 42 50 51 
940 3 3 42 50 53 
941 3 3 42 51 47 
942 3 3 42 51 49 
943 3 3 42 51 50 
944 3 3 42 51 51 
945 3 3 42 51 52 
946 3 3 42 52 49 
947 3 3 42 52 50 
948 3 3 42 53 51 
949 3 3 43 45 49 
950 3 3 43 45 51 
951 3 3 43 46 48 
952 3 3 43 46 49 
953 3 3 43 46 53 
954 3 3 43 47 46 
955 3 3 43 47 47 
956 3 3 43 47 52 
957 3 3 43 48 46 
958 3 3 43 48 52 
959 3 3 43 48 54 
960 3 3 43 49 47 
961 3 3 43 49 48 
962 3 3 43 49 50 
963 3 3 43 49 51 
964 3 3 43 49 52 
965 3 3 43 49 55 
966 3 3 43 50 46 
967 3 3 43 50 54 
968 3 3 43 50 55 
969 3 3 43 51 45 
970 3 3 43 51 50 
971 3 3 43 51 51 
972 3 3 43 51 52 
973 3 3 43 51 53 
974 3 3 43 51 54 
975 3 3 43 51 55 
976 3 3 43 52 48 
977 3 3 43 52 49 
978 3 3 43 52 51 
979 3 3 43 52 54 
980 3 3 43 53 50 
981 3 3 43 53 51 
982 3 3 43 53 53 
983 3 3 43 54 47 
984 3 3 43 54 50 
985 3 3 43 54 51 
986 3 3 43 54 52 
987 3 3 43 54 53 
988 3 3 44 44 49 
989 3 3 44 45 47 
990 3 3 44 45 49 
991 3 3 44 45 52 
992 3 3 44 45 53 
993 3 3 44 46 49 
994 3 3 44 46 50 
995 3 3 44 46 51 
996 3 3 44 46 53 
997 3 3 44 46 54 
998 3 3 44 47 46 
999 3 3 44 47 49 
1000 3 3 44 47 51 
1001 3 3 44 47 53 
1002 3 3 44 47 54 
1003 3 3 44 48 45 
1004 3 3 44 48 46 
1005 3 3 44 48 48 
1006 3 3 44 48 52 
1007 3 3 44 48 53 
1008 3 3 44 48 54 
1009 3 3 44 49 44 
1010 3 3 44 49 47 
1011 3 3 44 49 48 
1012 3 3 44 49 49 
1013 3 3 44 49 50 
1014 3 3 44 49 51 
1015 3 3 44 49 53 
1016 3 3 44 49 54 
1017 3 3 44 49 56 
1018 3 3 44 50 44 
1019 3 3 44 50 46 
1020 3 3 44 50 50 
1021 3 3 44 50 51 
1022 3 3 44 50 52 
1023 3 3 44 50 55 
1024 3 3 44 51 44 
1025 3 3 44 51 45 
1026 3 3 44 51 47 
1027 3 3 44 51 48 
1028 3 3 44 51 52 
1029 3 3 44 52 47 
1030 3 3 44 52 49 
1031 3 3 44 52 51 
1032 3 3 44 52 52 
1033 3 3 44 52 53 
1034 3 3 44 52 55 
1035 3 3 44 53 45 
1036 3 3 44 53 47 
1037 3 3 44 53 51 
1038 3 3 44 53 52 
1039 3 3 44 53 55 
1040 3 3 44 54 46 
1041 3 3 44 54 47 
1042 3 3 44 54 48 
1043 3 3 44 54 49 
1044 3 3 44 54 50 
1045 3 3 44 54 52 
1046 3 3 44 54 53 
1047 3 3 44 55 49 
1048 3 3 44 55 50 
1049 3 3 44 55 52 
1050 3 3 44 56 50 
1051 3 3 44 56 51 
1052 3 3 45 43 49 
1053 3 3 45 44 49 
1054 3 3 45 44 51 
1055 3 3 45 44 52 
1056 3 3 45 45 45 
1057 3 3 45 45 47 
1058 3 3 45 45 48 
1059 3 3 45 45 50 
1060 3 3 45 45 52 
1061 3 3 45 45 53 
1062 3 3 45 45 54 
1063 3 3 45 45 55 
1064 3 3 45 46 45 
1065 3 3 45 46 46 
1066 3 3 45 46 48 
1067 3 3 45 46 52 
1068 3 3 45 46 53 
1069 3 3 45 46 54 
1070 3 3 45 47 44 
1071 3 3 45 47 45 
1072 3 3 45 47 47 
1073 3 3 45 47 48 
1074 3 3 45 47 49 
1075 3 3 45 47 54 
1076 3 3 45 47 55 
1077 3 3 45 48 45 
1078 3 3 45 48 46 
1079 3 3 45 48 47 
1080 3 3 45 48 48 
1081 3 3 45 48 50 
1082 3 3 45 48 51 
1083 3 3 45 48 55 
1084 3 3 45 49 45 
1085 3 3 45 49 46 
1086 3 3 45 49 49 
1087 3 3 45 49 51 
1088 3 3 45 49 53 
1089 3 3 45 49 54 
1090 3 3 45 49 56 
1091 3 3 45 50 43 
1092 3 3 45 50 45 
1093 3 3 45 50 48 
1094 3 3 45 50 49 
1095 3 3 45 50 50 
1096 3 3 45 50 51 
1097 3 3 45 50 55 
1098 3 3 45 50 56 
1099 3 3 45 51 45 
1100 3 3 45 51 48 
1101 3 3 45 51 49 
1102 3 3 45 51 50 
1103 3 3 45 51 51 
1104 3 3 45 51 52 
1105 3 3 45 51 53 
1106 3 3 45 51 55 
1107 3 3 45 51 56 
1108 3 3 45 52 44 
1109 3 3 45 52 47 
1110 3 3 45 52 48 
1111 3 3 45 52 51 
1112 3 3 45 52 52 
1113 3 3 45 52 53 
1114 3 3 45 53 44 
1115 3 3 45 53 45 
1116 3 3 45 53 47 
1117 3 3 45 53 49 
1118 3 3 45 53 50 
1119 3 3 45 53 52 
1120 3 3 45 53 54 
1121 3 3 45 54 45 
1122 3 3 45 54 46 
1123 3 3 45 54 48 
1124 3 3 45 54 49 
1125 3 3 45 54 50 
1126 3 3 45 54 53 
1127 3 3 45 54 54 
1128 3 3 45 55 45 
1129 3 3 45 55 46 
1130 3 3 45 55 49 
1131 3 3 45 55 50 
1132 3 3 45 55 52 
1133 3 3 45 55 53 
1134 3 3 45 55 54 
1135 3 3 45 56 47 
1136 3 3 45 56 50 
1137 3 3 45 56 51 
1138 3 3 45 57 49 
1139 3 3 45 57 51 
1140 3 3 46 43 51 
1141 3 3 46 43 53 
1142 3 3 46 44 48 
1143 3 3 46 44 52 
1144 3 3 46 44 53 
1145 3 3 46 45 45 
1146 3 3 46 45 49 
1147 3 3 46 45 50 
1148 3 3 46 45 53 
1149 3 3 46 45 54 
1150 3 3 46 45 55 
1151 3 3 46 46 44 
1152 3 3 46 46 45 
1153 3 3 46 46 47 
1154 3 3 46 46 49 
1155 3 3 46 46 50 
1156 3 3 46 46 51 
1157 3 3 46 46 52 
1158 3 3 46 47 43 
1159 3 3 46 47 47 
1160 3 3 46 47 49 
1161 3 3 46 47 51 
1162 3 3 46 47 53 
1163 3 3 46 47 57 
1164 3 3 46 48 45 
1165 3 3 46 48 47 
1166 3 3 46 48 49 
1167 3 3 46 48 50 
1168 3 3 46 48 52 
1169 3 3 46 48 55 
1170 3 3 46 49 47 
1171 3 3 46 49 49 
1172 3 3 46 49 50 
1173 3 3 46 49 56 
1174 3 3 46 50 44 
1175 3 3 46 50 46 
1176 3 3 46 50 47 
1177 3 3 46 50 51 
1178 3 3 46 50 54 
1179 3 3 46 50 55 
1180 3 3 46 50 57 
1181 3 3 46 51 47 
1182 3 3 46 51 48 
1183 3 3 46 51 52 
1184 3 3 46 51 55 
1185 3 3 46 51 57 
1186 3 3 46 52 52 
1187 3 3 46 52 54 
1188 3 3 46 52 56 
1189 3 3 46 52 57 
1190 3 3 46 53 46 
1191 3 3 46 53 49 
1192 3 3 46 53 54 
1193 3 3 46 54 44 
1194 3 3 46 54 45 
1195 3 3 46 54 46 
1196 3 3 46 54 49 
1197 3 3 46 54 50 
1198 3 3 46 54 51 
1199 3 3 46 54 54 
1200 3 3 46 54 56 
1201 3 3 46 55 45 
1202 3 3 46 55 48 
1203 3 3 46 55 49 
1204 3 3 46 55 50 
1205 3 3 46 55 52 
1206 3 3 46 55 53 
1207 3 3 46 55 54 
1208 3 3 46 56 47 
1209 3 3 46 56 50 
1210 3 3 46 56 51 
1211 3 3 46 56 54 
1212 3 3 46 57 48 
1213 3 3 46 57 49 
1214 3 3 46 57 51 
1215 3 3 46 57 52 
1216 3 3 47 43 47 
1217 3 3 47 43 49 
1218 3 3 47 43 52 
1219 3 3 47 44 45 
1220 3 3 47 44 46 
1221 3 3 47 44 48 
1222 3 3 47 44 49 
1223 3 3 47 44 51 
1224 3 3 47 44 52 
1225 3 3 47 44 53 
1226 3 3 47 45 45 
1227 3 3 47 45 48 
1228 3 3 47 45 50 
1229 3 3 47 45 53 
1230 3 3 47 45 54 
1231 3 3 47 46 43 
1232 3 3 47 46 44 
1233 3 3 47 46 45 
1234 3 3 47 46 46 
1235 3 3 47 46 50 
1236 3 3 47 46 52 
1237 3 3 47 46 56 
1238 3 3 47 46 57 
1239 3 3 47 47 43 
1240 3 3 47 47 46 
1241 3 3 47 47 48 
1242 3 3 47 47 50 
1243 3 3 47 47 54 
1244 3 3 47 48 44 
1245 3 3 47 48 45 
1246 3 3 47 48 49 
1247 3 3 47 48 52 
1248 3 3 47 48 53 
1249 3 3 47 48 54 
1250 3 3 47 48 57 
1251 3 3 47 49 42 
1252 3 3 47 49 43 
1253 3 3 47 49 44 
1254 3 3 47 49 45 
1255 3 3 47 49 46 
1256 3 3 47 49 48 
1257 3 3 47 49 50 
1258 3 3 47 49 53 
1259 3 3 47 49 54 
1260 3 3 47 49 55 
1261 3 3 47 49 56 
1262 3 3 47 49 58 
1263 3 3 47 50 42 
1264 3 3 47 50 44 
1265 3 3 47 50 45 
1266 3 3 47 50 46 
1267 3 3 47 50 49 
1268 3 3 47 50 50 
1269 3 3 47 50 51 
1270 3 3 47 50 56 
1271 3 3 47 50 57 
1272 3 3 47 50 58 
1273 3 3 47 51 44 
1274 3 3 47 51 45 
1275 3 3 47 51 47 
1276 3 3 47 51 50 
1277 3 3 47 51 51 
1278 3 3 47 51 54 
1279 3 3 47 51 55 
1280 3 3 47 51 58 
1281 3 3 47 52 43 
1282 3 3 47 52 44 
1283 3 3 47 52 45 
1284 3 3 47 52 46 
1285 3 3 47 52 48 
1286 3 3 47 52 51 
1287 3 3 47 52 52 
1288 3 3 47 52 53 
1289 3 3 47 52 55 
1290 3 3 47 53 47 
1291 3 3 47 53 48 
1292 3 3 47 53 49 
1293 3 3 47 53 50 
1294 3 3 47 53 54 
1295 3 3 47 54 43 
1296 3 3 47 54 47 
1297 3 3 47 54 48 
1298 3 3 47 54 50 
1299 3 3 47 54 51 
1300 3 3 47 54 54 
1301 3 3 47 54 55 
1302 3 3 47 55 44 
1303 3 3 47 55 45 
1304 3 3 47 55 47 
1305 3 3 47 55 49 
1306 3 3 47 55 50 
1307 3 3 47 55 51 
1308 3 3 47 55 53 
1309 3 3 47 55 55 
1310 3 3 47 55 56 
1311 3 3 47 56 45 
1312 3 3 47 56 46 
1313 3 3 47 56 48 
1314 3 3 47 56 53 
1315 3 3 47 57 47 
1316 3 3 47 57 48 
1317 3 3 47 57 49 
1318 3 3 47 57 51 
1319 3 3 47 57 54 
1320 3 3 47 58 50 
1321 3 3 48 42 48 
1322 3 3 48 42 50 
1323 3 3 48 42 51 
1324 3 3 48 43 46 
1325 3 3 48 43 48 
1326 3 3 48 43 49 
1327 3 3 48 43 50 
1328 3 3 48 43 53 
1329 3 3 48 44 46 
1330 3 3 48 44 48 
1331 3 3 48 44 50 
1332 3 3 48 44 52 
1333 3 3 48 45 45 
1334 3 3 48 45 46 
1335 3 3 48 45 47 
1336 3 3 48 45 52 
1337 3 3 48 45 53 
1338 3 3 48 45 54 
1339 3 3 48 46 43 
1340 3 3 48 46 44 
1341 3 3 48 46 49 
1342 3 3 48 46 50 
1343 3 3 48 46 51 
1344 3 3 48 46 52 
1345 3 3 48 46 56 
1346 3 3 48 47 43 
1347 3 3 48 47 44 
1348 3 3 48 47 45 
1349 3 3 48 47 46 
1350 3 3 48 47 49 
1351 3 3 48 47 50 
1352 3 3 48 47 51 
1353 3 3 48 47 52 
1354 3 3 48 47 53 
1355 3 3 48 47 55 
1356 3 3 48 47 56 
1357 3 3 48 48 43 
1358 3 3 48 48 44 
1359 3 3 48 48 48 
1360 3 3 48 48 49 
1361 3 3 48 48 50 
1362 3 3 48 48 52 
1363 3 3 48 48 53 
1364 3 3 48 48 54 
1365 3 3 48 48 56 
1366 3 3 48 48 57 
1367 3 3 48 49 44 
1368 3 3 48 49 46 
1369 3 3 48 49 49 
1370 3 3 48 49 51 
1371 3 3 48 49 55 
1372 3 3 48 49 56 
1373 3 3 48 49 57 
1374 3 3 48 50 42 
1375 3 3 48 50 43 
1376 3 3 48 50 44 
1377 3 3 48 50 46 
1378 3 3 48 50 53 
1379 3 3 48 50 54 
1380 3 3 48 50 57 
1381 3 3 48 51 44 
1382 3 3 48 51 47 
1383 3 3 48 51 48 
1384 3 3 48 51 53 
1385 3 3 48 51 55 
1386 3 3 48 51 57 
1387 3 3 48 51 58 
1388 3 3 48 52 45 
1389 3 3 48 52 46 
1390 3 3 48 52 49 
1391 3 3 48 52 51 
1392 3 3 48 52 54 
1393 3 3 48 53 45 
1394 3 3 48 53 47 
1395 3 3 48 53 48 
1396 3 3 48 53 49 
1397 3 3 48 53 56 
1398 3 3 48 54 45 
1399 3 3 48 54 46 
1400 3 3 48 54 48 
1401 3 3 48 54 49 
1402 3 3 48 54 53 
1403 3 3 48 55 45 
1404 3 3 48 55 46 
1405 3 3 48 55 47 
1406 3 3 48 55 49 
1407 3 3 48 55 50 
1408 3 3 48 55 51 
1409 3 3 48 55 52 
1410 3 3 48 55 54 
1411 3 3 48 56 47 
1412 3 3 48 56 51 
1413 3 3 48 56 53 
1414 3 3 48 56 54 
1415 3 3 48 57 47 
1416 3 3 48 57 48 
1417 3 3 48 57 49 
1418 3 3 48 57 52 
1419 3 3 48 58 49 
1420 3 3 48 58 50 
1421 3 3 48 58 51 
1422 3 3 49 42 47 
1423 3 3 49 42 48 
1424 3 3 49 42 49 
1425 3 3 49 42 50 
1426 3 3 49 42 51 
1427 3 3 49 43 46 
1428 3 3 49 43 47 
1429 3 3 49 43 48 
1430 3 3 49 43 52 
1431 3 3 49 43 53 
1432 3 3 49 43 54 
1433 3 3 49 43 55 
1434 3 3 49 44 47 
1435 3 3 49 44 50 
1436 3 3 49 44 53 
1437 3 3 49 44 54 
1438 3 3 49 44 55 
1439 3 3 49 44 56 
1440 3 3 49 45 44 
1441 3 3 49 45 46 
1442 3 3 49 45 47 
1443 3 3 49 45 48 
1444 3 3 49 45 49 
1445 3 3 49 45 50 
1446 3 3 49 45 52 
1447 3 3 49 45 56 
1448 3 3 49 46 44 
1449 3 3 49 46 47 
1450 3 3 49 46 48 
1451 3 3 49 46 49 
1452 3 3 49 46 50 
1453 3 3 49 46 51 
1454 3 3 49 46 54 
1455 3 3 49 46 55 
1456 3 3 49 46 57 
1457 3 3 49 47 42 
1458 3 3 49 47 44 
1459 3 3 49 47 45 
1460 3 3 49 47 47 
1461 3 3 49 47 49 
1462 3 3 49 47 50 
1463 3 3 49 47 51 
1464 3 3 49 47 52 
1465 3 3 49 47 53 
1466 3 3 49 47 54 
1467 3 3 49 47 55 
1468 3 3 49 47 57 
1469 3 3 49 48 42 
1470 3 3 49 48 45 
1471 3 3 49 48 46 
1472 3 3 49 48 48 
1473 3 3 49 48 53 
1474 3 3 49 48 55 
1475 3 3 49 48 56 
1476 3 3 49 48 57 
1477 3 3 49 48 58 
1478 3 3 49 49 42 
1479 3 3 49 49 44 
1480 3 3 49 49 45 
1481 3 3 49 49 51 
1482 3 3 49 49 52 
1483 3 3 49 49 53 
1484 3 3 49 49 54 
1485 3 3 49 49 55 
1486 3 3 49 50 42 
1487 3 3 49 50 45 
1488 3 3 49 50 46 
1489 3 3 49 50 48 
1490 3 3 49 50 49 
1491 3 3 49 50 51 
1492 3 3 49 50 53 
1493 3 3 49 50 54 
1494 3 3 49 50 57 
1495 3 3 49 50 58 
1496 3 3 49 51 45 
1497 3 3 49 51 47 
1498 3 3 49 51 48 
1499 3 3 49 51 50 
1500 3 3 49 51 52 
1501 3 3 49 51 53 
1502 3 3 49 51 54 
1503 3 3 49 51 58 
1504 3 3 49 52 44 
1505 3 3 49 52 46 
1506 3 3 49 52 47 
1507 3 3 49 52 50 
1508 3 3 49 52 52 
1509 3 3 49 52 53 
1510 3 3 49 53 43 
1511 3 3 49 53 44 
1512 3 3 49 53 45 
1513 3 3 49 53 46 
1514 3 3 49 53 51 
1515 3 3 49 53 52 
1516 3 3 49 53 54 
1517 3 3 49 53 55 
1518 3 3 49 53 56 
1519 3 3 49 53 57 
1520 3 3 49 54 44 
1521 3 3 49 54 45 
1522 3 3 49 54 46 
1523 3 3 49 54 48 
1524 3 3 49 54 50 
1525 3 3 49 54 56 
1526 3 3 49 54 57 
1527 3 3 49 55 43 
1528 3 3 49 55 44 
1529 3 3 49 55 45 
1530 3 3 49 55 46 
1531 3 3 49 55 50 
1532 3 3 49 55 51 
1533 3 3 49 55 55 
1534 3 3 49 55 56 
1535 3 3 49 56 44 
1536 3 3 49 56 45 
1537 3 3 49 56 48 
1538 3 3 49 56 49 
1539 3 3 49 56 52 
1540 3 3 49 56 53 
1541 3 3 49 56 54 
1542 3 3 49 56 56 
1543 3 3 49 57 45 
1544 3 3 49 57 47 
1545 3 3 49 57 51 
1546 3 3 49 58 47 
1547 3 3 49 58 49 
1548 3 3 49 58 52 